 Entering Link 1 = C:\G16W\l1.exe PID=     31480.
  
 Copyright (c) 1988-2019, Gaussian, Inc.  All Rights Reserved.
  
 This is part of the Gaussian(R) 16 program.  It is based on
 the Gaussian(R) 09 system (copyright 2009, Gaussian, Inc.),
 the Gaussian(R) 03 system (copyright 2003, Gaussian, Inc.),
 the Gaussian(R) 98 system (copyright 1998, Gaussian, Inc.),
 the Gaussian(R) 94 system (copyright 1995, Gaussian, Inc.),
 the Gaussian 92(TM) system (copyright 1992, Gaussian, Inc.),
 the Gaussian 90(TM) system (copyright 1990, Gaussian, Inc.),
 the Gaussian 88(TM) system (copyright 1988, Gaussian, Inc.),
 the Gaussian 86(TM) system (copyright 1986, Carnegie Mellon
 University), and the Gaussian 82(TM) system (copyright 1983,
 Carnegie Mellon University). Gaussian is a federally registered
 trademark of Gaussian, Inc.
  
 This software contains proprietary and confidential information,
 including trade secrets, belonging to Gaussian, Inc.
  
 This software is provided under written license and may be
 used, copied, transmitted, or stored only in accord with that
 written license.
  
 The following legend is applicable only to US Government
 contracts under FAR:
  
                    RESTRICTED RIGHTS LEGEND
  
 Use, reproduction and disclosure by the US Government is
 subject to restrictions as set forth in subparagraphs (a)
 and (c) of the Commercial Computer Software - Restricted
 Rights clause in FAR 52.227-19.
  
 Gaussian, Inc.
 340 Quinnipiac St., Bldg. 40, Wallingford CT 06492
  
  
 ---------------------------------------------------------------
 Warning -- This program may not be used in any manner that
 competes with the business of Gaussian, Inc. or will provide
 assistance to any competitor of Gaussian, Inc.  The licensee
 of this program is prohibited from giving any competitor of
 Gaussian, Inc. access to this program.  By using this program,
 the user acknowledges that Gaussian, Inc. is engaged in the
 business of creating and licensing software in the field of
 computational chemistry and represents and warrants to the
 licensee that it is not a competitor of Gaussian, Inc. and that
 it will not use this program in any manner prohibited above.
 ---------------------------------------------------------------
  

 Cite this work as:
 Gaussian 16, Revision C.01,
 M. J. Frisch, G. W. Trucks, H. B. Schlegel, G. E. Scuseria, 
 M. A. Robb, J. R. Cheeseman, G. Scalmani, V. Barone, 
 G. A. Petersson, H. Nakatsuji, X. Li, M. Caricato, A. V. Marenich, 
 J. Bloino, B. G. Janesko, R. Gomperts, B. Mennucci, H. P. Hratchian, 
 J. V. Ortiz, A. F. Izmaylov, J. L. Sonnenberg, D. Williams-Young, 
 F. Ding, F. Lipparini, F. Egidi, J. Goings, B. Peng, A. Petrone, 
 T. Henderson, D. Ranasinghe, V. G. Zakrzewski, J. Gao, N. Rega, 
 G. Zheng, W. Liang, M. Hada, M. Ehara, K. Toyota, R. Fukuda, 
 J. Hasegawa, M. Ishida, T. Nakajima, Y. Honda, O. Kitao, H. Nakai, 
 T. Vreven, K. Throssell, J. A. Montgomery, Jr., J. E. Peralta, 
 F. Ogliaro, M. J. Bearpark, J. J. Heyd, E. N. Brothers, K. N. Kudin, 
 V. N. Staroverov, T. A. Keith, R. Kobayashi, J. Normand, 
 K. Raghavachari, A. P. Rendell, J. C. Burant, S. S. Iyengar, 
 J. Tomasi, M. Cossi, J. M. Millam, M. Klene, C. Adamo, R. Cammi, 
 J. W. Ochterski, R. L. Martin, K. Morokuma, O. Farkas, 
 J. B. Foresman, and D. J. Fox, Gaussian, Inc., Wallingford CT, 2019.
 
 ******************************************
 Gaussian 16:  EM64W-G16RevC.01 30-May-2019
                30-Jul-2023 
 ******************************************
 %chk=D:\Wu Group Data\Gaussian\Benzene amine and Ph dicarbonyl OEt.chk
 ----------------------------
 # hf/3-21g geom=connectivity
 ----------------------------
 1/38=1,57=2,172=1/1;
 2/12=2,17=6,18=5,40=1/2;
 3/5=5,11=9,25=1,30=1/1,2,3;
 4//1;
 5/5=2,38=5/2;
 6/7=2,8=2,9=2,10=2,28=1/1;
 99/5=1,9=1/99;
 -------------------
 Title Card Required
 -------------------
 Symbolic Z-matrix:
 Charge =  0 Multiplicity = 1
 C                     2.36776  -1.28695  -0.09798 
 C                     3.6854   -1.74012  -0.24754 
 C                     4.74991  -0.83042  -0.19118 
 C                     4.49678   0.53247   0.01473 
 C                     3.17913   0.98564   0.16428 
 C                     2.11462   0.07594   0.10793 
 H                     1.55498  -1.98153  -0.14101 
 H                     3.87867  -2.78071  -0.40476 
 H                     5.75596  -1.17642  -0.30537 
 H                     5.30955   1.22705   0.05776 
 H                     2.98586   2.02623   0.3215 
 C                     0.66666   0.57393   0.27228 
 C                    -0.50313  -0.42575   0.21036 
 C                    -1.95109   0.07225   0.3747 
 C                    -4.19879  -0.19935  -0.19727 
 C                    -5.36858  -1.19903  -0.25919 
 H                    -3.99341   0.17064  -1.18003 
 H                    -4.46046   0.61659   0.44356 
 H                    -6.23765  -0.70768  -0.64414 
 H                    -5.10691  -2.01498  -0.90002 
 H                    -5.57396  -1.56902   0.72358 
 O                    -3.03732  -0.85602   0.3172 
 O                    -2.1784    1.29606   0.55959 
 O                    -0.27582  -1.64956   0.02546 
 O                     0.43936   1.79774   0.45718 
 
                          Input orientation:                          
 ---------------------------------------------------------------------
 Center     Atomic      Atomic             Coordinates (Angstroms)
 Number     Number       Type             X           Y           Z
 ---------------------------------------------------------------------
      1          6           0        2.367756   -1.286946   -0.097982
      2          6           0        3.685401   -1.740121   -0.247539
      3          6           0        4.749911   -0.830415   -0.191184
      4          6           0        4.496776    0.532466    0.014729
      5          6           0        3.179132    0.985641    0.164285
      6          6           0        2.114622    0.075936    0.107931
      7          1           0        1.554980   -1.981526   -0.141009
      8          1           0        3.878674   -2.780711   -0.404760
      9          1           0        5.755962   -1.176425   -0.305373
     10          1           0        5.309553    1.227046    0.057759
     11          1           0        2.985858    2.026232    0.321502
     12          6           0        0.666661    0.573930    0.272280
     13          6           0       -0.503130   -0.425747    0.210356
     14          6           0       -1.951091    0.072248    0.374701
     15          6           0       -4.198790   -0.199353   -0.197269
     16          6           0       -5.368580   -1.199031   -0.259188
     17          1           0       -3.993415    0.170639   -1.180034
     18          1           0       -4.460456    0.616592    0.443563
     19          1           0       -6.237648   -0.707676   -0.644143
     20          1           0       -5.106914   -2.014976   -0.900019
     21          1           0       -5.573955   -1.569023    0.723577
     22          8           0       -3.037325   -0.856024    0.317204
     23          8           0       -2.178396    1.296062    0.559591
     24          8           0       -0.275825   -1.649560    0.025463
     25          8           0        0.439357    1.797743    0.457177
 ---------------------------------------------------------------------
                    Distance matrix (angstroms):
                    1          2          3          4          5
     1  C    0.000000
     2  C    1.401400   0.000000
     3  C    2.427296   1.401400   0.000000
     4  C    2.802800   2.427296   1.401400   0.000000
     5  C    2.427296   2.802800   2.427296   1.401400   0.000000
     6  C    1.401400   2.427296   2.802800   2.427296   1.401400
     7  H    1.070000   2.146700   3.396345   3.872800   3.396345
     8  H    2.146700   1.070000   2.146700   3.396345   3.872800
     9  H    3.396345   2.146700   1.070000   2.146700   3.396345
    10  H    3.872800   3.396345   2.146700   1.070000   2.146700
    11  H    3.396345   3.872800   3.396345   2.146700   1.070000
    12  C    2.548270   3.838989   4.342800   3.838989   2.548270
    13  C    3.013092   4.413732   5.283883   5.094654   3.943753
    14  C    4.552283   5.953310   6.785164   6.474285   5.215146
    15  C    6.656744   8.033489   8.970926   8.728881   7.481220
    16  C    7.738515   9.070142  10.125431  10.019899   8.832639
    17  H    6.615126   7.967732   8.855827   8.581475   7.342809
    18  H    7.109234   8.508038   9.344923   8.967887   7.653594
    19  H    8.642155   9.984495  10.997577  10.825892   9.601907
    20  H    7.552747   8.820775   9.953021   9.977830   8.876655
    21  H    7.989074   9.311714  10.390598  10.312049   9.135406
    22  O    5.438104   6.804087   7.803855   7.666947   6.485326
    23  O    5.269898   6.652366   7.286082   6.740762   5.381053
    24  O    2.671189   3.971654   5.096661   5.247768   4.347445
    25  O    3.679977   4.852825   5.090036   4.273095   2.872571
                    6          7          8          9         10
     6  C    0.000000
     7  H    2.146700   0.000000
     8  H    3.396345   2.471400   0.000000
     9  H    3.872800   4.280590   2.471400   0.000000
    10  H    3.396345   4.942800   4.280590   2.471400   0.000000
    11  H    2.146700   4.280590   4.942800   4.280590   2.471400
    12  C    1.540000   2.736837   4.693509   5.412800   4.693509
    13  C    2.667358   2.603790   5.012427   6.325007   6.045022
    14  C    4.074457   4.095910   6.537056   7.837113   7.358734
    15  C    6.326776   6.023717   8.482446  10.003171   9.618120
    16  C    7.599910   6.968640   9.382677  11.124661  10.954855
    17  H    6.243071   6.041197   8.442825   9.880787   9.444223
    18  H    6.605801   6.578557   9.044469  10.399568   9.796662
    19  H    8.422593   7.912072  10.329316  12.007546  11.729181
    20  H    7.585410   6.705075   9.031745  10.911408  10.951294
    21  H    7.886642   7.193009   9.596538  11.383316  11.256646
    22  O    5.239742   4.750366   7.215033   8.821119   8.606792
    23  O    4.485834   5.017122   7.364655   8.355560   7.505064
    24  O    2.949300   1.868090   4.327177   6.059353   6.282703
    25  O    2.427572   3.985638   5.790861   6.139499   4.919761
                   11         12         13         14         15
    11  H    0.000000
    12  C    2.736837   0.000000
    13  C    4.265863   1.540000   0.000000
    14  C    5.309835   2.667358   1.540000   0.000000
    15  C    7.539331   4.948844   3.724958   2.335180   0.000000
    16  C    8.974194   6.312685   4.948843   3.700973   1.540000
    17  H    7.376183   4.897771   3.804070   2.568651   1.070000
    18  H    7.579550   5.130155   4.098938   2.568651   1.070000
    19  H    9.668495   7.081796   5.804684   4.474472   2.148263
    20  H    9.127783   6.435129   4.995338   3.992572   2.148263
    21  H    9.292896   6.613714   5.223385   3.992572   2.148263
    22  O    6.677286   3.970680   2.572683   1.430000   1.430000
    23  O    5.221049   2.949300   2.427572   1.258400   2.625089
    24  O    4.923175   2.427572   1.258400   2.427572   4.188360
    25  O    2.560329   1.258400   2.427572   2.949300   5.092061
                   16         17         18         19         20
    16  C    0.000000
    17  H    2.148263   0.000000
    18  H    2.148263   1.747303   0.000000
    19  H    1.070000   2.468846   2.468846   0.000000
    20  H    1.070000   2.468846   3.024610   1.747303   0.000000
    21  H    1.070000   3.024610   2.468846   1.747303   1.747303
    22  O    2.425826   2.051796   2.051796   3.344887   2.666083
    23  O    4.131968   2.754481   2.383892   4.684172   4.655067
    24  O    5.120562   4.311243   4.777174   6.072796   4.932491
    25  O    6.574645   4.997738   5.040185   7.216122   6.865851
                   21         22         23         24         25
    21  H    0.000000
    22  O    2.666083   0.000000
    23  O    4.445832   2.329803   0.000000
    24  O    5.344533   2.888026   3.547077   0.000000
    25  O    6.896811   4.376001   2.667358   3.547077   0.000000
 Stoichiometry    C11H10O4
 Framework group  C1[X(C11H10O4)]
 Deg. of freedom    69
 Full point group                 C1      NOp   1
 Largest Abelian subgroup         C1      NOp   1
 Largest concise Abelian subgroup C1      NOp   1
                         Standard orientation:                         
 ---------------------------------------------------------------------
 Center     Atomic      Atomic             Coordinates (Angstroms)
 Number     Number       Type             X           Y           Z
 ---------------------------------------------------------------------
      1          6           0       -2.259468   -1.145926   -0.032920
      2          6           0       -3.567643   -1.645888    0.018429
      3          6           0       -4.652122   -0.762994    0.109674
      4          6           0       -4.428426    0.619862    0.149571
      5          6           0       -3.120250    1.119824    0.098223
      6          6           0       -2.035771    0.236930    0.006976
      7          1           0       -1.431444   -1.820035   -0.102590
      8          1           0       -3.738440   -2.701729   -0.012031
      9          1           0       -5.650943   -1.144726    0.148880
     10          1           0       -5.256450    1.293971    0.219237
     11          1           0       -2.949453    2.175665    0.128687
     12          6           0       -0.598215    0.786339   -0.049451
     13          6           0        0.593519   -0.183874   -0.149726
     14          6           0        2.031075    0.365535   -0.206150
     15          6           0        4.279476    0.044757    0.336863
     16          6           0        5.471210   -0.925456    0.236584
     17          1           0        4.057417    0.231681    1.366742
     18          1           0        4.527857    0.966027   -0.147355
     19          1           0        6.325557   -0.491370    0.712569
     20          1           0        5.222829   -1.846726    0.720802
     21          1           0        5.693269   -1.112380   -0.793294
     22          8           0        3.137686   -0.535377   -0.299266
     23          8           0        2.231946    1.607282   -0.170313
     24          8           0        0.392649   -1.425622   -0.185559
     25          8           0       -0.397345    2.028087   -0.013622
 ---------------------------------------------------------------------
 Rotational constants (GHZ):           1.8495324           0.2543773           0.2255103
 Standard basis: 3-21G (6D, 7F)
 There are   155 symmetry adapted cartesian basis functions of A   symmetry.
 There are   155 symmetry adapted basis functions of A   symmetry.
   155 basis functions,   255 primitive gaussians,   155 cartesian basis functions
    54 alpha electrons       54 beta electrons
       nuclear repulsion energy       905.9059704692 Hartrees.
 NAtoms=   25 NActive=   25 NUniq=   25 SFac= 1.00D+00 NAtFMM=   60 NAOKFM=F Big=F
 Integral buffers will be    131072 words long.
 Raffenetti 1 integral format.
 Two-electron integral symmetry is turned on.
 One-electron integrals computed using PRISM.
 NBasis=   155 RedAO= T EigKep=  1.63D-03  NBF=   155
 NBsUse=   155 1.00D-06 EigRej= -1.00D+00 NBFU=   155
 ExpMin= 1.83D-01 ExpMax= 3.22D+02 ExpMxC= 3.22D+02 IAcc=3 IRadAn=         5 AccDes= 0.00D+00
 Harris functional with IExCor=  205 and IRadAn=       5 diagonalized for initial guess.
 HarFok:  IExCor=  205 AccDes= 0.00D+00 IRadAn=         5 IDoV= 1 UseB2=F ITyADJ=14
 ICtDFT=  3500011 ScaDFX=  1.000000  1.000000  1.000000  1.000000
 FoFCou: FMM=F IPFlag=           0 FMFlag=      100000 FMFlg1=           0
         NFxFlg=           0 DoJE=T BraDBF=F KetDBF=T FulRan=T
         wScrn=  0.000000 ICntrl=       500 IOpCl=  0 I1Cent=   200000004 NGrid=           0
         NMat0=    1 NMatS0=      1 NMatT0=    0 NMatD0=    1 NMtDS0=    0 NMtDT0=    0
 Petite list used in FoFCou.
 Keep R1 ints in memory in canonical form, NReq=74990156.
 Requested convergence on RMS density matrix=1.00D-08 within 128 cycles.
 Requested convergence on MAX density matrix=1.00D-06.
 Requested convergence on             energy=1.00D-06.
 No special actions if energy rises.
 SCF Done:  E(RHF) =  -717.736067326     A.U. after   18 cycles
            NFock= 18  Conv=0.40D-08     -V/T= 2.0037

 **********************************************************************

            Population analysis using the SCF Density.

 **********************************************************************

 Orbital symmetries:
       Occupied  (A) (A) (A) (A) (A) (A) (A) (A) (A) (A) (A) (A)
                 (A) (A) (A) (A) (A) (A) (A) (A) (A) (A) (A) (A)
                 (A) (A) (A) (A) (A) (A) (A) (A) (A) (A) (A) (A)
                 (A) (A) (A) (A) (A) (A) (A) (A) (A) (A) (A) (A)
                 (A) (A) (A) (A) (A) (A)
       Virtual   (A) (A) (A) (A) (A) (A) (A) (A) (A) (A) (A) (A)
                 (A) (A) (A) (A) (A) (A) (A) (A) (A) (A) (A) (A)
                 (A) (A) (A) (A) (A) (A) (A) (A) (A) (A) (A) (A)
                 (A) (A) (A) (A) (A) (A) (A) (A) (A) (A) (A) (A)
                 (A) (A) (A) (A) (A) (A) (A) (A) (A) (A) (A) (A)
                 (A) (A) (A) (A) (A) (A) (A) (A) (A) (A) (A) (A)
                 (A) (A) (A) (A) (A) (A) (A) (A) (A) (A) (A) (A)
                 (A) (A) (A) (A) (A) (A) (A) (A) (A) (A) (A) (A)
                 (A) (A) (A) (A) (A)
 The electronic state is 1-A.
 Alpha  occ. eigenvalues --  -20.54560 -20.51912 -20.50344 -20.50181 -11.38014
 Alpha  occ. eigenvalues --  -11.35780 -11.33062 -11.23723 -11.21725 -11.20381
 Alpha  occ. eigenvalues --  -11.20154 -11.19450 -11.19330 -11.19141 -11.16556
 Alpha  occ. eigenvalues --   -1.46951  -1.44457  -1.40985  -1.37224  -1.16883
 Alpha  occ. eigenvalues --   -1.04981  -1.04608  -1.02857  -0.99185  -0.90942
 Alpha  occ. eigenvalues --   -0.86183  -0.84854  -0.81908  -0.76508  -0.72603
 Alpha  occ. eigenvalues --   -0.71351  -0.69965  -0.68911  -0.66985  -0.64799
 Alpha  occ. eigenvalues --   -0.62894  -0.62599  -0.62140  -0.60493  -0.59244
 Alpha  occ. eigenvalues --   -0.57113  -0.55793  -0.54304  -0.53543  -0.52595
 Alpha  occ. eigenvalues --   -0.51174  -0.50671  -0.49723  -0.49649  -0.49234
 Alpha  occ. eigenvalues --   -0.45688  -0.41470  -0.35490  -0.34938
 Alpha virt. eigenvalues --    0.00512   0.08410   0.13371   0.16899   0.24647
 Alpha virt. eigenvalues --    0.26498   0.26860   0.28254   0.32236   0.33061
 Alpha virt. eigenvalues --    0.33470   0.33832   0.34418   0.36272   0.37003
 Alpha virt. eigenvalues --    0.37446   0.38415   0.39391   0.41541   0.43079
 Alpha virt. eigenvalues --    0.44412   0.46248   0.48433   0.49428   0.51325
 Alpha virt. eigenvalues --    0.53166   0.58210   0.67310   0.71440   0.76493
 Alpha virt. eigenvalues --    0.80815   0.88489   0.89777   0.90544   0.91369
 Alpha virt. eigenvalues --    0.93391   0.94652   0.95744   0.96277   0.96946
 Alpha virt. eigenvalues --    0.97860   1.00000   1.01226   1.02096   1.03566
 Alpha virt. eigenvalues --    1.03859   1.04766   1.05224   1.06481   1.07233
 Alpha virt. eigenvalues --    1.09584   1.11230   1.12776   1.14288   1.19557
 Alpha virt. eigenvalues --    1.22537   1.26053   1.27250   1.30552   1.32576
 Alpha virt. eigenvalues --    1.34115   1.36595   1.36952   1.37674   1.40529
 Alpha virt. eigenvalues --    1.42559   1.43200   1.46437   1.53174   1.54163
 Alpha virt. eigenvalues --    1.56809   1.60946   1.66505   1.70187   1.72845
 Alpha virt. eigenvalues --    1.75145   1.77777   1.79271   1.80779   1.82781
 Alpha virt. eigenvalues --    1.84192   1.89300   1.92201   1.93086   1.95285
 Alpha virt. eigenvalues --    1.96184   2.01611   2.02996   2.09516   2.12445
 Alpha virt. eigenvalues --    2.12568   2.16705   2.20188   2.25106   2.31724
 Alpha virt. eigenvalues --    2.34945   2.74211   3.41202   3.55083   3.72576
 Alpha virt. eigenvalues --    3.89323
          Condensed to atoms (all electrons):
               1          2          3          4          5          6
     1  C    5.316628   0.448138  -0.103302  -0.004327  -0.080784   0.404671
     2  C    0.448138   5.190901   0.465520  -0.105016  -0.003359  -0.108236
     3  C   -0.103302   0.465520   5.164748   0.459146  -0.100725  -0.001208
     4  C   -0.004327  -0.105016   0.459146   5.198625   0.451019  -0.100989
     5  C   -0.080784  -0.003359  -0.100725   0.451019   5.189629   0.413829
     6  C    0.404671  -0.108236  -0.001208  -0.100989   0.413829   5.643441
     7  H    0.354288  -0.017706   0.001308   0.000003   0.001362  -0.028625
     8  H   -0.031988   0.398945  -0.031987   0.002088  -0.000075   0.002302
     9  H    0.002351  -0.031360   0.396021  -0.031672   0.002373  -0.000191
    10  H   -0.000085   0.002058  -0.031846   0.398473  -0.032532   0.002541
    11  H    0.001700  -0.000047   0.001841  -0.025119   0.391194  -0.034969
    12  C   -0.029992   0.001616  -0.000198   0.003341  -0.057453   0.198033
    13  C   -0.000699   0.000001  -0.000020   0.000020   0.004083  -0.123149
    14  C   -0.000345   0.000002   0.000000   0.000000  -0.000012   0.003765
    15  C    0.000000   0.000000   0.000000   0.000000   0.000000   0.000000
    16  C    0.000000   0.000000   0.000000   0.000000   0.000000   0.000000
    17  H    0.000000   0.000000   0.000000   0.000000   0.000000   0.000000
    18  H    0.000000   0.000000   0.000000   0.000000   0.000000   0.000000
    19  H    0.000000   0.000000   0.000000   0.000000   0.000000   0.000000
    20  H    0.000000   0.000000   0.000000   0.000000   0.000000   0.000000
    21  H    0.000000   0.000000   0.000000   0.000000   0.000000   0.000000
    22  O    0.000000   0.000000   0.000000   0.000000   0.000000   0.000000
    23  O   -0.000002   0.000000   0.000000   0.000000   0.000000   0.000057
    24  O   -0.025881   0.000712  -0.000002  -0.000001   0.000005   0.001825
    25  O    0.002073  -0.000004  -0.000003   0.000261   0.004114  -0.094341
               7          8          9         10         11         12
     1  C    0.354288  -0.031988   0.002351  -0.000085   0.001700  -0.029992
     2  C   -0.017706   0.398945  -0.031360   0.002058  -0.000047   0.001616
     3  C    0.001308  -0.031987   0.396021  -0.031846   0.001841  -0.000198
     4  C    0.000003   0.002088  -0.031672   0.398473  -0.025119   0.003341
     5  C    0.001362  -0.000075   0.002373  -0.032532   0.391194  -0.057453
     6  C   -0.028625   0.002302  -0.000191   0.002541  -0.034969   0.198033
     7  H    0.328880  -0.000709  -0.000019   0.000000  -0.000023  -0.000097
     8  H   -0.000709   0.413292  -0.001076  -0.000032   0.000001  -0.000036
     9  H   -0.000019  -0.001076   0.413291  -0.001093  -0.000027   0.000000
    10  H    0.000000  -0.000032  -0.001093   0.413017  -0.001036  -0.000034
    11  H   -0.000023   0.000001  -0.000027  -0.001036   0.379920  -0.000910
    12  C   -0.000097  -0.000036   0.000000  -0.000034  -0.000910   4.968764
    13  C   -0.007265   0.000006   0.000000   0.000000   0.000195   0.032725
    14  C    0.000274   0.000000   0.000000   0.000000   0.000000  -0.100386
    15  C    0.000000   0.000000   0.000000   0.000000   0.000000  -0.000071
    16  C    0.000000   0.000000   0.000000   0.000000   0.000000   0.000000
    17  H    0.000000   0.000000   0.000000   0.000000   0.000000  -0.000006
    18  H    0.000000   0.000000   0.000000   0.000000   0.000000   0.000005
    19  H    0.000000   0.000000   0.000000   0.000000   0.000000   0.000000
    20  H    0.000000   0.000000   0.000000   0.000000   0.000000   0.000000
    21  H    0.000000   0.000000   0.000000   0.000000   0.000000   0.000000
    22  O    0.000000   0.000000   0.000000   0.000000   0.000000   0.000910
    23  O   -0.000001   0.000000   0.000000   0.000000   0.000000   0.008160
    24  O    0.033890   0.000001   0.000000   0.000000  -0.000001  -0.062970
    25  O   -0.000006   0.000000   0.000000   0.000001   0.005130   0.518595
              13         14         15         16         17         18
     1  C   -0.000699  -0.000345   0.000000   0.000000   0.000000   0.000000
     2  C    0.000001   0.000002   0.000000   0.000000   0.000000   0.000000
     3  C   -0.000020   0.000000   0.000000   0.000000   0.000000   0.000000
     4  C    0.000020   0.000000   0.000000   0.000000   0.000000   0.000000
     5  C    0.004083  -0.000012   0.000000   0.000000   0.000000   0.000000
     6  C   -0.123149   0.003765   0.000000   0.000000   0.000000   0.000000
     7  H   -0.007265   0.000274   0.000000   0.000000   0.000000   0.000000
     8  H    0.000006   0.000000   0.000000   0.000000   0.000000   0.000000
     9  H    0.000000   0.000000   0.000000   0.000000   0.000000   0.000000
    10  H    0.000000   0.000000   0.000000   0.000000   0.000000   0.000000
    11  H    0.000195   0.000000   0.000000   0.000000   0.000000   0.000000
    12  C    0.032725  -0.100386  -0.000071   0.000000  -0.000006   0.000005
    13  C    5.390205   0.096968   0.002694   0.000004   0.000273  -0.000102
    14  C    0.096968   4.608354  -0.082466   0.004761  -0.005566  -0.009528
    15  C    0.002694  -0.082466   5.164892   0.246968   0.368564   0.368530
    16  C    0.000004   0.004761   0.246968   5.375543  -0.046053  -0.043453
    17  H    0.000273  -0.005566   0.368564  -0.046053   0.536923  -0.037831
    18  H   -0.000102  -0.009528   0.368530  -0.043453  -0.037831   0.499629
    19  H    0.000001  -0.000078  -0.044962   0.369183   0.000362   0.000427
    20  H   -0.000010  -0.000159  -0.043824   0.374075  -0.003318   0.003279
    21  H    0.000000  -0.000086  -0.044253   0.376163   0.003462  -0.003105
    22  O   -0.050726   0.246156   0.177654  -0.031719  -0.035811  -0.034011
    23  O   -0.072566   0.439909  -0.005102   0.000210   0.001556   0.008345
    24  O    0.435630  -0.059363  -0.000096  -0.000001   0.000002  -0.000002
    25  O   -0.074890   0.006492   0.000001   0.000000   0.000000   0.000000
              19         20         21         22         23         24
     1  C    0.000000   0.000000   0.000000   0.000000  -0.000002  -0.025881
     2  C    0.000000   0.000000   0.000000   0.000000   0.000000   0.000712
     3  C    0.000000   0.000000   0.000000   0.000000   0.000000  -0.000002
     4  C    0.000000   0.000000   0.000000   0.000000   0.000000  -0.000001
     5  C    0.000000   0.000000   0.000000   0.000000   0.000000   0.000005
     6  C    0.000000   0.000000   0.000000   0.000000   0.000057   0.001825
     7  H    0.000000   0.000000   0.000000   0.000000  -0.000001   0.033890
     8  H    0.000000   0.000000   0.000000   0.000000   0.000000   0.000001
     9  H    0.000000   0.000000   0.000000   0.000000   0.000000   0.000000
    10  H    0.000000   0.000000   0.000000   0.000000   0.000000   0.000000
    11  H    0.000000   0.000000   0.000000   0.000000   0.000000  -0.000001
    12  C    0.000000   0.000000   0.000000   0.000910   0.008160  -0.062970
    13  C    0.000001  -0.000010   0.000000  -0.050726  -0.072566   0.435630
    14  C   -0.000078  -0.000159  -0.000086   0.246156   0.439909  -0.059363
    15  C   -0.044962  -0.043824  -0.044253   0.177654  -0.005102  -0.000096
    16  C    0.369183   0.374075   0.376163  -0.031719   0.000210  -0.000001
    17  H    0.000362  -0.003318   0.003462  -0.035811   0.001556   0.000002
    18  H    0.000427   0.003279  -0.003105  -0.034011   0.008345  -0.000002
    19  H    0.507052  -0.023237  -0.022578   0.001328   0.000004   0.000000
    20  H   -0.023237   0.489479  -0.023883   0.001435  -0.000002   0.000000
    21  H   -0.022578  -0.023883   0.483895   0.001449  -0.000002   0.000000
    22  O    0.001328   0.001435   0.001449   8.420005  -0.047905   0.000683
    23  O    0.000004  -0.000002  -0.000002  -0.047905   8.197147   0.000410
    24  O    0.000000   0.000000   0.000000   0.000683   0.000410   8.166147
    25  O    0.000000   0.000000   0.000000  -0.000001  -0.004694   0.000419
              25
     1  C    0.002073
     2  C   -0.000004
     3  C   -0.000003
     4  C    0.000261
     5  C    0.004114
     6  C   -0.094341
     7  H   -0.000006
     8  H    0.000000
     9  H    0.000000
    10  H    0.000001
    11  H    0.005130
    12  C    0.518595
    13  C   -0.074890
    14  C    0.006492
    15  C    0.000001
    16  C    0.000000
    17  H    0.000000
    18  H    0.000000
    19  H    0.000000
    20  H    0.000000
    21  H    0.000000
    22  O   -0.000001
    23  O   -0.004694
    24  O    0.000419
    25  O    8.153706
 Mulliken charges:
               1
     1  C   -0.252447
     2  C   -0.242167
     3  C   -0.219293
     4  C   -0.245852
     5  C   -0.182668
     6  C   -0.178757
     7  H    0.334443
     8  H    0.249268
     9  H    0.251400
    10  H    0.250569
    11  H    0.282151
    12  C    0.520006
    13  C    0.366623
    14  C    0.851307
    15  C   -0.108529
    16  C   -0.625683
    17  H    0.217443
    18  H    0.247816
    19  H    0.212499
    20  H    0.226164
    21  H    0.228936
    22  O   -0.649448
    23  O   -0.525526
    24  O   -0.491405
    25  O   -0.516853
 Sum of Mulliken charges =   0.00000
 Mulliken charges with hydrogens summed into heavy atoms:
               1
     1  C    0.081997
     2  C    0.007101
     3  C    0.032108
     4  C    0.004717
     5  C    0.099483
     6  C   -0.178757
    12  C    0.520006
    13  C    0.366623
    14  C    0.851307
    15  C    0.356730
    16  C    0.041917
    22  O   -0.649448
    23  O   -0.525526
    24  O   -0.491405
    25  O   -0.516853
 Electronic spatial extent (au):  <R**2>=           4644.1895
 Charge=              0.0000 electrons
 Dipole moment (field-independent basis, Debye):
    X=             -0.6369    Y=             -1.7692    Z=              0.9833  Tot=              2.1219
 Quadrupole moment (field-independent basis, Debye-Ang):
   XX=            -63.2101   YY=            -95.8144   ZZ=            -88.7631
   XY=             -0.0990   XZ=              3.0333   YZ=             -0.3066
 Traceless Quadrupole moment (field-independent basis, Debye-Ang):
   XX=             19.3858   YY=            -13.2185   ZZ=             -6.1673
   XY=             -0.0990   XZ=              3.0333   YZ=             -0.3066
 Octapole moment (field-independent basis, Debye-Ang**2):
  XXX=             27.9286  YYY=            -16.7123  ZZZ=             -3.5296  XYY=            -20.8476
  XXY=             -0.1430  XXZ=             17.4454  XZZ=             30.4089  YZZ=              4.4363
  YYZ=              1.3318  XYZ=             -2.4133
 Hexadecapole moment (field-independent basis, Debye-Ang**3):
 XXXX=          -4559.5713 YYYY=           -723.8865 ZZZZ=           -111.2464 XXXY=             23.0338
 XXXZ=             23.9339 YYYX=             -0.2551 YYYZ=              1.1832 ZZZX=             -0.6003
 ZZZY=              1.2330 XXYY=           -976.8163 XXZZ=           -976.1950 YYZZ=           -140.2342
 XXYZ=              1.7320 YYXZ=              1.0979 ZZXY=             -4.3580
 N-N= 9.059059704692D+02 E-N=-3.492431064977D+03  KE= 7.150711655127D+02
 Unable to Open any file for archive entry.
 1|1|UNPC-SHENGHAN|SP|RHF|3-21G|C11H10O4|SHENGHAN|30-Jul-2023|0||# hf/3
 -21g geom=connectivity||Title Card Required||0,1|C,0,2.36775645,-1.286
 9456,-0.09798176|C,0,3.6854008,-1.7401209,-0.24753938|C,0,4.74991079,-
 0.83041521,-0.19118352|C,0,4.49677635,0.53246597,0.01472864|C,0,3.1791
 3191,0.98564147,0.16428483|C,0,2.11462204,0.0759355,0.10793091|H,0,1.5
 5497958,-1.98152637,-0.14100864|H,0,3.87867443,-2.78071064,-0.40475994
 |H,0,5.75596155,-1.17642471,-0.30537331|H,0,5.30955344,1.22704629,0.05
 775878|H,0,2.98585807,2.02623166,0.3215021|C,0,0.66666119,0.5739304,0.
 2722795|C,0,-0.50312963,-0.42574699,0.21035575|C,0,-1.95109071,0.07224
 838,0.37470089|C,0,-4.1987896,-0.19935298,-0.19726856|C,0,-5.36858012,
 -1.19903099,-0.25918777|H,0,-3.99341459,0.1706391,-1.18003353|H,0,-4.4
 6045617,0.61659172,0.44356282|H,0,-6.23764822,-0.70767571,-0.64414313|
 H,0,-5.10691355,-2.01497569,-0.90001915|H,0,-5.57395514,-1.56902307,0.
 72357719|O,0,-3.03732477,-0.85602406,0.31720449|O,0,-2.17839579,1.2960
 615,0.55959119|O,0,-0.27582474,-1.64955971,0.02546261|O,0,0.43935659,1
 .7977425,0.45717711||Version=EM64W-G16RevC.01|State=1-A|HF=-717.736067
 3|RMSD=4.047e-009|Dipole=0.2603378,-0.6113462,-0.5053825|Quadrupole=14
 .4516558,-9.7467615,-4.7048943,0.2221449,2.0867344,-0.643957|PG=C01 [X
 (C11H10O4)]||@
 The archive entry for this job was punched.


 Discoveries are often made by not following instructions,
 by going off the main road, by trying the untried.
 -- Frank Tyger
 Job cpu time:       0 days  0 hours  0 minutes  9.0 seconds.
 Elapsed time:       0 days  0 hours  0 minutes  8.8 seconds.
 File lengths (MBytes):  RWF=     11 Int=      0 D2E=      0 Chk=      3 Scr=      1
 Normal termination of Gaussian 16 at Sun Jul 30 16:35:18 2023.
