 Entering Link 1 = C:\G16W\l1.exe PID=     16548.
  
 Copyright (c) 1988-2019, Gaussian, Inc.  All Rights Reserved.
  
 This is part of the Gaussian(R) 16 program.  It is based on
 the Gaussian(R) 09 system (copyright 2009, Gaussian, Inc.),
 the Gaussian(R) 03 system (copyright 2003, Gaussian, Inc.),
 the Gaussian(R) 98 system (copyright 1998, Gaussian, Inc.),
 the Gaussian(R) 94 system (copyright 1995, Gaussian, Inc.),
 the Gaussian 92(TM) system (copyright 1992, Gaussian, Inc.),
 the Gaussian 90(TM) system (copyright 1990, Gaussian, Inc.),
 the Gaussian 88(TM) system (copyright 1988, Gaussian, Inc.),
 the Gaussian 86(TM) system (copyright 1986, Carnegie Mellon
 University), and the Gaussian 82(TM) system (copyright 1983,
 Carnegie Mellon University). Gaussian is a federally registered
 trademark of Gaussian, Inc.
  
 This software contains proprietary and confidential information,
 including trade secrets, belonging to Gaussian, Inc.
  
 This software is provided under written license and may be
 used, copied, transmitted, or stored only in accord with that
 written license.
  
 The following legend is applicable only to US Government
 contracts under FAR:
  
                    RESTRICTED RIGHTS LEGEND
  
 Use, reproduction and disclosure by the US Government is
 subject to restrictions as set forth in subparagraphs (a)
 and (c) of the Commercial Computer Software - Restricted
 Rights clause in FAR 52.227-19.
  
 Gaussian, Inc.
 340 Quinnipiac St., Bldg. 40, Wallingford CT 06492
  
  
 ---------------------------------------------------------------
 Warning -- This program may not be used in any manner that
 competes with the business of Gaussian, Inc. or will provide
 assistance to any competitor of Gaussian, Inc.  The licensee
 of this program is prohibited from giving any competitor of
 Gaussian, Inc. access to this program.  By using this program,
 the user acknowledges that Gaussian, Inc. is engaged in the
 business of creating and licensing software in the field of
 computational chemistry and represents and warrants to the
 licensee that it is not a competitor of Gaussian, Inc. and that
 it will not use this program in any manner prohibited above.
 ---------------------------------------------------------------
  

 Cite this work as:
 Gaussian 16, Revision C.01,
 M. J. Frisch, G. W. Trucks, H. B. Schlegel, G. E. Scuseria, 
 M. A. Robb, J. R. Cheeseman, G. Scalmani, V. Barone, 
 G. A. Petersson, H. Nakatsuji, X. Li, M. Caricato, A. V. Marenich, 
 J. Bloino, B. G. Janesko, R. Gomperts, B. Mennucci, H. P. Hratchian, 
 J. V. Ortiz, A. F. Izmaylov, J. L. Sonnenberg, D. Williams-Young, 
 F. Ding, F. Lipparini, F. Egidi, J. Goings, B. Peng, A. Petrone, 
 T. Henderson, D. Ranasinghe, V. G. Zakrzewski, J. Gao, N. Rega, 
 G. Zheng, W. Liang, M. Hada, M. Ehara, K. Toyota, R. Fukuda, 
 J. Hasegawa, M. Ishida, T. Nakajima, Y. Honda, O. Kitao, H. Nakai, 
 T. Vreven, K. Throssell, J. A. Montgomery, Jr., J. E. Peralta, 
 F. Ogliaro, M. J. Bearpark, J. J. Heyd, E. N. Brothers, K. N. Kudin, 
 V. N. Staroverov, T. A. Keith, R. Kobayashi, J. Normand, 
 K. Raghavachari, A. P. Rendell, J. C. Burant, S. S. Iyengar, 
 J. Tomasi, M. Cossi, J. M. Millam, M. Klene, C. Adamo, R. Cammi, 
 J. W. Ochterski, R. L. Martin, K. Morokuma, O. Farkas, 
 J. B. Foresman, and D. J. Fox, Gaussian, Inc., Wallingford CT, 2019.
 
 ******************************************
 Gaussian 16:  EM64W-G16RevC.01 30-May-2019
                30-Jul-2023 
 ******************************************
 %chk=D:\Wu Group Data\Gaussian\Benzene amine.chk
 ----------------------------
 # hf/3-21g geom=connectivity
 ----------------------------
 1/38=1,57=2,172=1/1;
 2/12=2,17=6,18=5,40=1/2;
 3/5=5,11=9,25=1,30=1/1,2,3;
 4//1;
 5/5=2,38=5/2;
 6/7=2,8=2,9=2,10=2,28=1/1;
 99/5=1,9=1/99;
 -------------------
 Title Card Required
 -------------------
 Symbolic Z-matrix:
 Charge =  0 Multiplicity = 1
 C                    -2.53393   1.93975  -0.37091 
 C                    -1.16164   1.96495  -0.08787 
 C                    -0.54442   3.16756   0.28186 
 C                    -1.29948   4.34496   0.36854 
 C                    -2.67177   4.31976   0.0855 
 C                    -3.28899   3.11715  -0.28423 
 H                    -3.00519   1.02153  -0.6532 
 H                     0.50335   3.1868    0.49797 
 H                    -0.82822   5.26318   0.65083 
 H                    -3.24828   5.21874   0.15168 
 H                    -4.33676   3.09791  -0.50034 
 C                     0.16418   0.58931  -1.54121 
 H                     0.74069  -0.30967  -1.6074 
 H                    -0.64589   0.5457   -2.23892 
 H                     0.78627   1.42955  -1.76902 
 N                    -0.36961   0.72991  -0.17879 
 H                     0.38746   0.77066   0.47327 
 
                          Input orientation:                          
 ---------------------------------------------------------------------
 Center     Atomic      Atomic             Coordinates (Angstroms)
 Number     Number       Type             X           Y           Z
 ---------------------------------------------------------------------
      1          6           0       -2.533926    1.939747   -0.370909
      2          6           0       -1.161639    1.964949   -0.087866
      3          6           0       -0.544418    3.167557    0.281859
      4          6           0       -1.299484    4.344962    0.368540
      5          6           0       -2.671772    4.319760    0.085496
      6          6           0       -3.288993    3.117152   -0.284228
      7          1           0       -3.005188    1.021530   -0.653202
      8          1           0        0.503355    3.186799    0.497967
      9          1           0       -0.828222    5.263179    0.650832
     10          1           0       -3.248281    5.218735    0.151677
     11          1           0       -4.336765    3.097910   -0.500338
     12          6           0        0.164178    0.589309   -1.541215
     13          1           0        0.740688   -0.309666   -1.607398
     14          1           0       -0.645886    0.545703   -2.238921
     15          1           0        0.786273    1.429548   -1.769022
     16          7           0       -0.369611    0.729909   -0.178790
     17          1           0        0.387459    0.770662    0.473272
 ---------------------------------------------------------------------
                    Distance matrix (angstroms):
                    1          2          3          4          5
     1  C    0.000000
     2  C    1.401400   0.000000
     3  C    2.427296   1.401400   0.000000
     4  C    2.802800   2.427296   1.401400   0.000000
     5  C    2.427296   2.802800   2.427296   1.401400   0.000000
     6  C    1.401400   2.427296   2.802800   2.427296   1.401400
     7  H    1.070000   2.146700   3.396345   3.872800   3.396345
     8  H    3.396345   2.146700   1.070000   2.146700   3.396345
     9  H    3.872800   3.396345   2.146700   1.070000   2.146700
    10  H    3.396345   3.872800   3.396345   2.146700   1.070000
    11  H    2.146700   3.396345   3.872800   3.396345   2.146700
    12  C    3.236212   2.400500   3.236212   4.460314   4.960349
    13  H    4.160753   3.331921   4.160753   5.452723   5.995194
    14  H    2.999587   2.628174   3.638508   4.654075   4.873462
    15  H    3.638508   2.628174   2.999587   4.173630   4.873462
    16  N    2.486942   1.470000   2.486942   3.772644   4.272800
    17  H    3.257897   2.034920   2.578785   3.953778   4.701633
                    6          7          8          9         10
     6  C    0.000000
     7  H    2.146700   0.000000
     8  H    3.872800   4.280590   0.000000
     9  H    3.396345   4.942800   2.471400   0.000000
    10  H    2.146700   4.280590   4.280590   2.471400   0.000000
    11  H    1.070000   2.471400   4.942800   4.280590   2.471400
    12  C    4.460314   3.319678   3.319677   5.256899   5.995194
    13  H    5.452723   4.088296   4.088295   6.214313   7.040557
    14  H    4.173630   2.882225   3.973248   5.535206   5.858724
    15  H    4.654075   3.973249   2.882224   4.812381   5.858724
    16  N    3.772644   2.693767   2.693766   4.631321   5.342800
    17  H    4.426750   3.583564   2.419041   4.657479   5.753901
                   11         12         13         14         15
    11  H    0.000000
    12  C    5.256899   0.000000
    13  H    6.214313   1.070000   0.000000
    14  H    4.812382   1.070000   1.747303   0.000000
    15  H    5.535206   1.070000   1.747303   1.747303   0.000000
    16  N    4.631321   1.470000   2.086720   2.086720   2.086720
    17  H    5.355585   2.034920   2.370879   2.911082   2.370879
                   16         17
    16  N    0.000000
    17  H    1.000000   0.000000
 Stoichiometry    C7H9N
 Framework group  C1[X(C7H9N)]
 Deg. of freedom    45
 Full point group                 C1      NOp   1
 Largest Abelian subgroup         C1      NOp   1
 Largest concise Abelian subgroup C1      NOp   1
                         Standard orientation:                         
 ---------------------------------------------------------------------
 Center     Atomic      Atomic             Coordinates (Angstroms)
 Number     Number       Type             X           Y           Z
 ---------------------------------------------------------------------
      1          6           0        0.243185   -1.220375   -0.209433
      2          6           0       -0.460980   -0.013803   -0.320152
      3          6           0        0.209541    1.206162   -0.158877
      4          6           0        1.584227    1.219555    0.113117
      5          6           0        2.288392    0.012984    0.223837
      6          6           0        1.617871   -1.206981    0.062562
      7          1           0       -0.268772   -2.151845   -0.332570
      8          1           0       -0.328105    2.127405   -0.243412
      9          1           0        2.096184    2.151025    0.236255
     10          1           0        3.337995    0.023210    0.431514
     11          1           0        2.155517   -2.128225    0.147099
     12          6           0       -2.652249   -0.064580    0.658704
     13          1           0       -3.701853   -0.074806    0.451030
     14          1           0       -2.388040   -0.946211    1.204432
     15          1           0       -2.412259    0.800545    1.240824
     16          7           0       -1.902958   -0.027853   -0.605461
     17          1           0       -2.149883    0.796102   -1.115488
 ---------------------------------------------------------------------
 Rotational constants (GHZ):           4.6191225           1.5230011           1.2473627
 Standard basis: 3-21G (6D, 7F)
 There are    90 symmetry adapted cartesian basis functions of A   symmetry.
 There are    90 symmetry adapted basis functions of A   symmetry.
    90 basis functions,   147 primitive gaussians,    90 cartesian basis functions
    29 alpha electrons       29 beta electrons
       nuclear repulsion energy       343.5975972554 Hartrees.
 NAtoms=   17 NActive=   17 NUniq=   17 SFac= 1.00D+00 NAtFMM=   60 NAOKFM=F Big=F
 Integral buffers will be    131072 words long.
 Raffenetti 1 integral format.
 Two-electron integral symmetry is turned on.
 One-electron integrals computed using PRISM.
 NBasis=    90 RedAO= T EigKep=  1.64D-03  NBF=    90
 NBsUse=    90 1.00D-06 EigRej= -1.00D+00 NBFU=    90
 ExpMin= 1.83D-01 ExpMax= 2.43D+02 ExpMxC= 2.43D+02 IAcc=3 IRadAn=         5 AccDes= 0.00D+00
 Harris functional with IExCor=  205 and IRadAn=       5 diagonalized for initial guess.
 HarFok:  IExCor=  205 AccDes= 0.00D+00 IRadAn=         5 IDoV= 1 UseB2=F ITyADJ=14
 ICtDFT=  3500011 ScaDFX=  1.000000  1.000000  1.000000  1.000000
 FoFCou: FMM=F IPFlag=           0 FMFlag=      100000 FMFlg1=           0
         NFxFlg=           0 DoJE=T BraDBF=F KetDBF=T FulRan=T
         wScrn=  0.000000 ICntrl=       500 IOpCl=  0 I1Cent=   200000004 NGrid=           0
         NMat0=    1 NMatS0=      1 NMatT0=    0 NMatD0=    1 NMtDS0=    0 NMtDT0=    0
 Petite list used in FoFCou.
 Keep R1 ints in memory in canonical form, NReq=9231472.
 Requested convergence on RMS density matrix=1.00D-08 within 128 cycles.
 Requested convergence on MAX density matrix=1.00D-06.
 Requested convergence on             energy=1.00D-06.
 No special actions if energy rises.
 SCF Done:  E(RHF) =  -322.941633919     A.U. after   14 cycles
            NFock= 14  Conv=0.30D-08     -V/T= 2.0025

 **********************************************************************

            Population analysis using the SCF Density.

 **********************************************************************

 Orbital symmetries:
       Occupied  (A) (A) (A) (A) (A) (A) (A) (A) (A) (A) (A) (A)
                 (A) (A) (A) (A) (A) (A) (A) (A) (A) (A) (A) (A)
                 (A) (A) (A) (A) (A)
       Virtual   (A) (A) (A) (A) (A) (A) (A) (A) (A) (A) (A) (A)
                 (A) (A) (A) (A) (A) (A) (A) (A) (A) (A) (A) (A)
                 (A) (A) (A) (A) (A) (A) (A) (A) (A) (A) (A) (A)
                 (A) (A) (A) (A) (A) (A) (A) (A) (A) (A) (A) (A)
                 (A) (A) (A) (A) (A) (A) (A) (A) (A) (A) (A) (A)
                 (A)
 The electronic state is 1-A.
 Alpha  occ. eigenvalues --  -15.47194 -11.21583 -11.18241 -11.18163 -11.18099
 Alpha  occ. eigenvalues --  -11.17802 -11.17648 -11.17473  -1.21971  -1.13366
 Alpha  occ. eigenvalues --   -1.01327  -0.99958  -0.90728  -0.83165  -0.80505
 Alpha  occ. eigenvalues --   -0.70968  -0.66615  -0.63786  -0.61529  -0.59529
 Alpha  occ. eigenvalues --   -0.58631  -0.57754  -0.53872  -0.50318  -0.49464
 Alpha  occ. eigenvalues --   -0.48876  -0.38648  -0.33765  -0.31873
 Alpha virt. eigenvalues --    0.14416   0.15086   0.26275   0.27909   0.31554
 Alpha virt. eigenvalues --    0.33436   0.34183   0.34630   0.35474   0.36973
 Alpha virt. eigenvalues --    0.37850   0.39000   0.43144   0.46940   0.50480
 Alpha virt. eigenvalues --    0.52108   0.56206   0.57549   0.79028   0.82192
 Alpha virt. eigenvalues --    0.90811   0.92267   0.92847   0.94970   0.97273
 Alpha virt. eigenvalues --    0.98914   1.01815   1.03458   1.05905   1.07718
 Alpha virt. eigenvalues --    1.08770   1.10919   1.11888   1.13167   1.18560
 Alpha virt. eigenvalues --    1.23386   1.27778   1.29064   1.31871   1.35808
 Alpha virt. eigenvalues --    1.36545   1.37638   1.40263   1.41084   1.44609
 Alpha virt. eigenvalues --    1.52980   1.60400   1.60728   1.61496   1.71402
 Alpha virt. eigenvalues --    1.73364   1.75678   1.77117   1.80535   1.81441
 Alpha virt. eigenvalues --    1.86714   2.14348   2.19488   2.26423   2.74230
 Alpha virt. eigenvalues --    3.14215
          Condensed to atoms (all electrons):
               1          2          3          4          5          6
     1  C    5.192530   0.469810  -0.102601   0.002034  -0.105294   0.451700
     2  C    0.469810   5.053257   0.414770  -0.091457  -0.001689  -0.104517
     3  C   -0.102601   0.414770   5.301329   0.427505  -0.105961   0.002542
     4  C    0.002034  -0.091457   0.427505   5.182406   0.475766  -0.107447
     5  C   -0.105294  -0.001689  -0.105961   0.475766   5.176041   0.469165
     6  C    0.451700  -0.104517   0.002542  -0.107447   0.469165   5.183011
     7  H    0.394561  -0.033323   0.002688  -0.000191   0.002129  -0.029994
     8  H    0.002052  -0.039743   0.402480  -0.029229   0.002169  -0.000060
     9  H   -0.000084   0.001862  -0.031039   0.397124  -0.031597   0.002175
    10  H    0.002221  -0.000090   0.002354  -0.032377   0.398839  -0.032399
    11  H   -0.031103   0.002256  -0.000075   0.002164  -0.032366   0.397442
    12  C   -0.002617  -0.117234   0.002075  -0.000038   0.000016  -0.000025
    13  H    0.000007   0.005099  -0.000131   0.000002   0.000000   0.000000
    14  H    0.002453  -0.003770  -0.000218   0.000016  -0.000001  -0.000089
    15  H   -0.000061  -0.001146   0.004488  -0.000256  -0.000005   0.000022
    16  N   -0.050902   0.297981  -0.067651   0.003115  -0.000104   0.001993
    17  H    0.002968  -0.056347   0.001686   0.000248   0.000010  -0.000122
               7          8          9         10         11         12
     1  C    0.394561   0.002052  -0.000084   0.002221  -0.031103  -0.002617
     2  C   -0.033323  -0.039743   0.001862  -0.000090   0.002256  -0.117234
     3  C    0.002688   0.402480  -0.031039   0.002354  -0.000075   0.002075
     4  C   -0.000191  -0.029229   0.397124  -0.032377   0.002164  -0.000038
     5  C    0.002129   0.002169  -0.031597   0.398839  -0.032366   0.000016
     6  C   -0.029994  -0.000060   0.002175  -0.032399   0.397442  -0.000025
     7  H    0.411623  -0.000030   0.000001  -0.000030  -0.001231   0.000171
     8  H   -0.000030   0.431832  -0.001139  -0.000033   0.000001   0.000268
     9  H    0.000001  -0.001139   0.423503  -0.001104  -0.000034   0.000001
    10  H   -0.000030  -0.000033  -0.001104   0.425965  -0.001105   0.000000
    11  H   -0.001231   0.000001  -0.000034  -0.001105   0.422458   0.000001
    12  C    0.000171   0.000268   0.000001   0.000000   0.000001   5.197256
    13  H   -0.000017  -0.000007   0.000000   0.000000   0.000000   0.377352
    14  H   -0.000012  -0.000008   0.000000   0.000000   0.000001   0.376831
    15  H    0.000054   0.000413   0.000001   0.000000   0.000000   0.362193
    16  N    0.000115  -0.003415  -0.000014   0.000000  -0.000012   0.248560
    17  H   -0.000016   0.001566  -0.000001   0.000000   0.000001  -0.046530
              13         14         15         16         17
     1  C    0.000007   0.002453  -0.000061  -0.050902   0.002968
     2  C    0.005099  -0.003770  -0.001146   0.297981  -0.056347
     3  C   -0.000131  -0.000218   0.004488  -0.067651   0.001686
     4  C    0.000002   0.000016  -0.000256   0.003115   0.000248
     5  C    0.000000  -0.000001  -0.000005  -0.000104   0.000010
     6  C    0.000000  -0.000089   0.000022   0.001993  -0.000122
     7  H   -0.000017  -0.000012   0.000054   0.000115  -0.000016
     8  H   -0.000007  -0.000008   0.000413  -0.003415   0.001566
     9  H    0.000000   0.000000   0.000001  -0.000014  -0.000001
    10  H    0.000000   0.000000   0.000000   0.000000   0.000000
    11  H    0.000000   0.000001   0.000000  -0.000012   0.000001
    12  C    0.377352   0.376831   0.362193   0.248560  -0.046530
    13  H    0.496281  -0.021951  -0.034061  -0.029559  -0.002425
    14  H   -0.021951   0.488658  -0.035612  -0.034266   0.003895
    15  H   -0.034061  -0.035612   0.572864  -0.054763  -0.001381
    16  N   -0.029559  -0.034266  -0.054763   7.091645   0.345805
    17  H   -0.002425   0.003895  -0.001381   0.345805   0.443126
 Mulliken charges:
               1
     1  C   -0.227673
     2  C    0.204283
     3  C   -0.254241
     4  C   -0.229385
     5  C   -0.247118
     6  C   -0.233398
     7  H    0.253502
     8  H    0.232883
     9  H    0.240344
    10  H    0.237759
    11  H    0.241602
    12  C   -0.398281
    13  H    0.209410
    14  H    0.224074
    15  H    0.187250
    16  N   -0.748530
    17  H    0.307517
 Sum of Mulliken charges =   0.00000
 Mulliken charges with hydrogens summed into heavy atoms:
               1
     1  C    0.025829
     2  C    0.204283
     3  C   -0.021358
     4  C    0.010960
     5  C   -0.009359
     6  C    0.008205
    12  C    0.222453
    16  N   -0.441013
 Electronic spatial extent (au):  <R**2>=            994.3805
 Charge=              0.0000 electrons
 Dipole moment (field-independent basis, Debye):
    X=             -0.0789    Y=              1.0872    Z=              0.9409  Tot=              1.4400
 Quadrupole moment (field-independent basis, Debye-Ang):
   XX=            -43.6579   YY=            -43.4966   ZZ=            -53.5319
   XY=             -2.9279   XZ=             -0.5035   YZ=             -1.8648
 Traceless Quadrupole moment (field-independent basis, Debye-Ang):
   XX=              3.2376   YY=              3.3988   ZZ=             -6.6364
   XY=             -2.9279   XZ=             -0.5035   YZ=             -1.8648
 Octapole moment (field-independent basis, Debye-Ang**2):
  XXX=             -2.6288  YYY=              0.2258  ZZZ=             -0.1579  XYY=              1.4455
  XXY=              6.1074  XXZ=              7.8193  XZZ=             -6.7195  YZZ=              1.8169
  YYZ=             -0.5318  XYZ=              4.8592
 Hexadecapole moment (field-independent basis, Debye-Ang**3):
 XXXX=           -851.2314 YYYY=           -279.6245 ZZZZ=           -109.7472 XXXY=            -14.9314
 XXXZ=              6.9943 YYYX=             -2.9787 YYYZ=             -0.8397 ZZZX=              0.5295
 ZZZY=             -3.9560 XXYY=           -192.4719 XXZZ=           -183.1445 YYZZ=            -74.8156
 XXYZ=             -9.8173 YYXZ=              4.5491 ZZXY=             -4.0109
 N-N= 3.435975972554D+02 E-N=-1.438969219510D+03  KE= 3.221478101342D+02
 Unable to Open any file for archive entry.
 1|1|UNPC-SHENGHAN|SP|RHF|3-21G|C7H9N1|SHENGHAN|30-Jul-2023|0||# hf/3-2
 1g geom=connectivity||Title Card Required||0,1|C,0,-2.53392614,1.93974
 739,-0.37090934|C,0,-1.16163856,1.96494946,-0.08786583|C,0,-0.54441761
 ,3.1675566,0.28185882|C,0,-1.29948426,4.34496167,0.36854004|C,0,-2.671
 77175,4.31975968,0.08549614|C,0,-3.28899282,3.11715242,-0.28422791|H,0
 ,-3.00518807,1.02153011,-0.65320211|H,0,0.50335478,3.18679932,0.497966
 94|H,0,-0.82822215,5.26317913,0.65083194|H,0,-3.24828143,5.21873505,0.
 15167688|H,0,-4.33676477,3.09791015,-0.50033825|C,0,0.16417827,0.58930
 903,-1.54121478|H,0,0.74068839,-0.30966588,-1.60739774|H,0,-0.64588614
 ,0.54570301,-2.23892114|H,0,0.78627277,1.42954838,-1.76902232|N,0,-0.3
 6961063,0.72990916,-0.17879009|H,0,0.3874589,0.77066245,0.47327193||Ve
 rsion=EM64W-G16RevC.01|State=1-A|HF=-322.9416339|RMSD=3.006e-009|Dipol
 e=0.402569,0.3288983,-0.2252199|Quadrupole=4.2559465,-0.9987145,-3.257
 232,-1.3956517,1.4558261,2.4769651|PG=C01 [X(C7H9N1)]||@
 The archive entry for this job was punched.


 The cat could very well be man's best friend
 but would never stoop to admitting it.
                               -- Doug Larson
 Job cpu time:       0 days  0 hours  0 minutes  4.0 seconds.
 Elapsed time:       0 days  0 hours  0 minutes  3.4 seconds.
 File lengths (MBytes):  RWF=      6 Int=      0 D2E=      0 Chk=      2 Scr=      1
 Normal termination of Gaussian 16 at Sun Jul 30 16:22:32 2023.
