 Entering Link 1 = C:\G16W\l1.exe PID=     14264.
  
 Copyright (c) 1988-2019, Gaussian, Inc.  All Rights Reserved.
  
 This is part of the Gaussian(R) 16 program.  It is based on
 the Gaussian(R) 09 system (copyright 2009, Gaussian, Inc.),
 the Gaussian(R) 03 system (copyright 2003, Gaussian, Inc.),
 the Gaussian(R) 98 system (copyright 1998, Gaussian, Inc.),
 the Gaussian(R) 94 system (copyright 1995, Gaussian, Inc.),
 the Gaussian 92(TM) system (copyright 1992, Gaussian, Inc.),
 the Gaussian 90(TM) system (copyright 1990, Gaussian, Inc.),
 the Gaussian 88(TM) system (copyright 1988, Gaussian, Inc.),
 the Gaussian 86(TM) system (copyright 1986, Carnegie Mellon
 University), and the Gaussian 82(TM) system (copyright 1983,
 Carnegie Mellon University). Gaussian is a federally registered
 trademark of Gaussian, Inc.
  
 This software contains proprietary and confidential information,
 including trade secrets, belonging to Gaussian, Inc.
  
 This software is provided under written license and may be
 used, copied, transmitted, or stored only in accord with that
 written license.
  
 The following legend is applicable only to US Government
 contracts under FAR:
  
                    RESTRICTED RIGHTS LEGEND
  
 Use, reproduction and disclosure by the US Government is
 subject to restrictions as set forth in subparagraphs (a)
 and (c) of the Commercial Computer Software - Restricted
 Rights clause in FAR 52.227-19.
  
 Gaussian, Inc.
 340 Quinnipiac St., Bldg. 40, Wallingford CT 06492
  
  
 ---------------------------------------------------------------
 Warning -- This program may not be used in any manner that
 competes with the business of Gaussian, Inc. or will provide
 assistance to any competitor of Gaussian, Inc.  The licensee
 of this program is prohibited from giving any competitor of
 Gaussian, Inc. access to this program.  By using this program,
 the user acknowledges that Gaussian, Inc. is engaged in the
 business of creating and licensing software in the field of
 computational chemistry and represents and warrants to the
 licensee that it is not a competitor of Gaussian, Inc. and that
 it will not use this program in any manner prohibited above.
 ---------------------------------------------------------------
  

 Cite this work as:
 Gaussian 16, Revision C.01,
 M. J. Frisch, G. W. Trucks, H. B. Schlegel, G. E. Scuseria, 
 M. A. Robb, J. R. Cheeseman, G. Scalmani, V. Barone, 
 G. A. Petersson, H. Nakatsuji, X. Li, M. Caricato, A. V. Marenich, 
 J. Bloino, B. G. Janesko, R. Gomperts, B. Mennucci, H. P. Hratchian, 
 J. V. Ortiz, A. F. Izmaylov, J. L. Sonnenberg, D. Williams-Young, 
 F. Ding, F. Lipparini, F. Egidi, J. Goings, B. Peng, A. Petrone, 
 T. Henderson, D. Ranasinghe, V. G. Zakrzewski, J. Gao, N. Rega, 
 G. Zheng, W. Liang, M. Hada, M. Ehara, K. Toyota, R. Fukuda, 
 J. Hasegawa, M. Ishida, T. Nakajima, Y. Honda, O. Kitao, H. Nakai, 
 T. Vreven, K. Throssell, J. A. Montgomery, Jr., J. E. Peralta, 
 F. Ogliaro, M. J. Bearpark, J. J. Heyd, E. N. Brothers, K. N. Kudin, 
 V. N. Staroverov, T. A. Keith, R. Kobayashi, J. Normand, 
 K. Raghavachari, A. P. Rendell, J. C. Burant, S. S. Iyengar, 
 J. Tomasi, M. Cossi, J. M. Millam, M. Klene, C. Adamo, R. Cammi, 
 J. W. Ochterski, R. L. Martin, K. Morokuma, O. Farkas, 
 J. B. Foresman, and D. J. Fox, Gaussian, Inc., Wallingford CT, 2019.
 
 ******************************************
 Gaussian 16:  EM64W-G16RevC.01 30-May-2019
                30-Jul-2023 
 ******************************************
 %chk=D:\Wu Group Data\Gaussian\Benzene amine.chk
 ------------------------------------------------------
 # b3lyp/3-21g scrf=(solvent=toluene) geom=connectivity
 ------------------------------------------------------
 1/38=1,57=2,172=1/1;
 2/12=2,17=6,18=5,40=1/2;
 3/5=5,11=2,25=1,30=1,70=2201,72=13,74=-5/1,2,3;
 4//1;
 5/5=2,38=5,53=13/2;
 6/7=2,8=2,9=2,10=2,28=1/1;
 99/5=1,9=1/99;
 -------------------
 Title Card Required
 -------------------
 Symbolic Z-matrix:
 Charge =  0 Multiplicity = 1
 C                    -2.53393   1.93975  -0.37091 
 C                    -1.16164   1.96495  -0.08787 
 C                    -0.54442   3.16756   0.28186 
 C                    -1.29948   4.34496   0.36854 
 C                    -2.67177   4.31976   0.0855 
 C                    -3.28899   3.11715  -0.28423 
 H                    -3.00519   1.02153  -0.6532 
 H                     0.50335   3.1868    0.49797 
 H                    -0.82822   5.26318   0.65083 
 H                    -4.33676   3.09791  -0.50034 
 C                     0.16418   0.58931  -1.54121 
 H                     0.74069  -0.30967  -1.6074 
 H                    -0.64589   0.5457   -2.23892 
 H                     0.78627   1.42955  -1.76902 
 N                    -0.36961   0.72991  -0.17879 
 H                     0.38746   0.77066   0.47327 
 O                    -3.44225   5.52119   0.17394 
 H                    -3.79805   5.60912   1.06123 
 
                          Input orientation:                          
 ---------------------------------------------------------------------
 Center     Atomic      Atomic             Coordinates (Angstroms)
 Number     Number       Type             X           Y           Z
 ---------------------------------------------------------------------
      1          6           0       -2.533926    1.939747   -0.370909
      2          6           0       -1.161639    1.964949   -0.087866
      3          6           0       -0.544418    3.167557    0.281859
      4          6           0       -1.299484    4.344962    0.368540
      5          6           0       -2.671772    4.319760    0.085496
      6          6           0       -3.288993    3.117152   -0.284228
      7          1           0       -3.005188    1.021530   -0.653202
      8          1           0        0.503355    3.186799    0.497967
      9          1           0       -0.828222    5.263179    0.650832
     10          1           0       -4.336765    3.097910   -0.500338
     11          6           0        0.164178    0.589309   -1.541215
     12          1           0        0.740688   -0.309666   -1.607398
     13          1           0       -0.645886    0.545703   -2.238921
     14          1           0        0.786273    1.429548   -1.769022
     15          7           0       -0.369611    0.729909   -0.178790
     16          1           0        0.387459    0.770662    0.473272
     17          8           0       -3.442247    5.521194    0.173943
     18          1           0       -3.798054    5.609116    1.061227
 ---------------------------------------------------------------------
                    Distance matrix (angstroms):
                    1          2          3          4          5
     1  C    0.000000
     2  C    1.401400   0.000000
     3  C    2.427296   1.401400   0.000000
     4  C    2.802800   2.427296   1.401400   0.000000
     5  C    2.427296   2.802800   2.427296   1.401400   0.000000
     6  C    1.401400   2.427296   2.802800   2.427296   1.401400
     7  H    1.070000   2.146700   3.396345   3.872800   3.396345
     8  H    3.396345   2.146700   1.070000   2.146700   3.396345
     9  H    3.872800   3.396345   2.146700   1.070000   2.146700
    10  H    2.146700   3.396345   3.872800   3.396345   2.146700
    11  C    3.236212   2.400500   3.236212   4.460314   4.960349
    12  H    4.160753   3.331921   4.160753   5.452723   5.995194
    13  H    2.999587   2.628174   3.638508   4.654075   4.873462
    14  H    3.638508   2.628174   2.999587   4.173630   4.873462
    15  N    2.486942   1.470000   2.486942   3.772644   4.272800
    16  H    3.257897   2.034920   2.578785   3.953778   4.701633
    17  O    3.734792   4.232800   3.734792   2.452106   1.430000
    18  H    4.136822   4.642310   4.141832   2.884571   1.970533
                    6          7          8          9         10
     6  C    0.000000
     7  H    2.146700   0.000000
     8  H    3.872800   4.280590   0.000000
     9  H    3.396345   4.942800   2.471400   0.000000
    10  H    1.070000   2.471400   4.942800   4.280590   0.000000
    11  C    4.460314   3.319678   3.319677   5.256899   5.256899
    12  H    5.452723   4.088296   4.088295   6.214313   6.214313
    13  H    4.173630   2.882225   3.973248   5.535206   4.812382
    14  H    4.654075   3.973249   2.882224   4.812381   5.535206
    15  N    3.772644   2.693767   2.693766   4.631321   4.631321
    16  H    4.426750   3.583564   2.419041   4.657479   5.355585
    17  O    2.452106   4.595886   4.595886   2.669667   2.669667
    18  H    2.877372   4.961234   4.968601   3.017945   3.005802
                   11         12         13         14         15
    11  C    0.000000
    12  H    1.070000   0.000000
    13  H    1.070000   1.747303   0.000000
    14  H    1.070000   1.747303   1.747303   0.000000
    15  N    1.470000   2.086720   2.086720   2.086720   0.000000
    16  H    2.034920   2.370879   2.911082   2.370879   1.000000
    17  O    6.345988   7.393852   6.196536   6.196536   5.702800
    18  H    6.904379   7.921724   6.816545   6.818735   6.090856
                   16         17         18
    16  H    0.000000
    17  O    6.109321   0.000000
    18  H    6.424550   0.960000   0.000000
 Stoichiometry    C7H9NO
 Framework group  C1[X(C7H9NO)]
 Deg. of freedom    48
 Full point group                 C1      NOp   1
 Largest Abelian subgroup         C1      NOp   1
 Largest concise Abelian subgroup C1      NOp   1
                         Standard orientation:                         
 ---------------------------------------------------------------------
 Center     Atomic      Atomic             Coordinates (Angstroms)
 Number     Number       Type             X           Y           Z
 ---------------------------------------------------------------------
      1          6           0        0.231081    1.223347   -0.248953
      2          6           0        0.934876    0.014436   -0.333397
      3          6           0        0.254417   -1.203333   -0.199468
      4          6           0       -1.129837   -1.212191    0.018904
      5          6           0       -1.833631   -0.003280    0.103348
      6          6           0       -1.153172    1.214489   -0.030581
      7          1           0        0.750627    2.153140   -0.351210
      8          1           0        0.791779   -2.126363   -0.263941
      9          1           0       -1.649382   -2.141984    0.121162
     10          1           0       -1.690534    2.137519    0.033895
     11          6           0        3.086622    0.056810    0.729895
     12          1           0        4.143530    0.063573    0.563163
     13          1           0        2.804434    0.938898    1.265797
     14          1           0        2.821232   -0.807961    1.301419
     15          7           0        2.386890    0.023728   -0.562459
     16          1           0        2.650617   -0.800653   -1.063302
     17          8           0       -3.246134   -0.012319    0.326180
     18          1           0       -3.703604   -0.025381   -0.517710
 ---------------------------------------------------------------------
 Rotational constants (GHZ):           4.5239628           0.9585158           0.8447180
 Standard basis: 3-21G (6D, 7F)
 There are    99 symmetry adapted cartesian basis functions of A   symmetry.
 There are    99 symmetry adapted basis functions of A   symmetry.
    99 basis functions,   162 primitive gaussians,    99 cartesian basis functions
    33 alpha electrons       33 beta electrons
       nuclear repulsion energy       420.0442302931 Hartrees.
 NAtoms=   18 NActive=   18 NUniq=   18 SFac= 1.00D+00 NAtFMM=   60 NAOKFM=F Big=F
 Integral buffers will be    131072 words long.
 Raffenetti 2 integral format.
 Two-electron integral symmetry is turned on.
 ------------------------------------------------------------------------------
 Polarizable Continuum Model (PCM)
 =================================
 Model                : PCM.
 Atomic radii         : UFF (Universal Force Field).
 Polarization charges : Total charges.
 Charge compensation  : None.
 Solution method      : On-the-fly selection.
 Cavity type          : Scaled VdW (van der Waals Surface) (Alpha=1.100).
 Cavity algorithm     : GePol (No added spheres)
                        Default sphere list used, NSphG=   18.
                        Lebedev-Laikov grids with approx.  5.0 points / Ang**2.
                        Smoothing algorithm: York/Karplus (Gamma=1.0000).
                        Polarization charges: spherical gaussians, with
                                              point-specific exponents (IZeta= 3).
                        Self-potential: point-specific (ISelfS= 7).
                        Self-field    : sphere-specific E.n sum rule (ISelfD= 2).
 Solvent              : Toluene, Eps=   2.374100 Eps(inf)=   2.238315
 ------------------------------------------------------------------------------
 Spheres list:
 ISph  on   Nord     Re0    Alpha      Xe            Ye            Ze
    1   C      1    1.9255  1.100      0.231081      1.223347     -0.248953
    2   C      2    1.9255  1.100      0.934876      0.014436     -0.333397
    3   C      3    1.9255  1.100      0.254417     -1.203333     -0.199468
    4   C      4    1.9255  1.100     -1.129837     -1.212191      0.018904
    5   C      5    1.9255  1.100     -1.833631     -0.003280      0.103348
    6   C      6    1.9255  1.100     -1.153172      1.214489     -0.030581
    7   H      7    1.4430  1.100      0.750627      2.153140     -0.351210
    8   H      8    1.4430  1.100      0.791779     -2.126363     -0.263941
    9   H      9    1.4430  1.100     -1.649382     -2.141984      0.121162
   10   H     10    1.4430  1.100     -1.690534      2.137519      0.033895
   11   C     11    1.9255  1.100      3.086622      0.056810      0.729895
   12   H     12    1.4430  1.100      4.143530      0.063573      0.563163
   13   H     13    1.4430  1.100      2.804434      0.938898      1.265797
   14   H     14    1.4430  1.100      2.821232     -0.807961      1.301419
   15   N     15    1.8300  1.100      2.386890      0.023728     -0.562459
   16   H     16    1.4430  1.100      2.650617     -0.800653     -1.063302
   17   O     17    1.7500  1.100     -3.246134     -0.012319      0.326180
   18   H     18    1.4430  1.100     -3.703604     -0.025381     -0.517710
 ------------------------------------------------------------------------------
 One-electron integrals computed using PRISM.
 NBasis=    99 RedAO= T EigKep=  1.57D-03  NBF=    99
 NBsUse=    99 1.00D-06 EigRej= -1.00D+00 NBFU=    99
 ExpMin= 1.83D-01 ExpMax= 3.22D+02 ExpMxC= 3.22D+02 IAcc=3 IRadAn=         5 AccDes= 0.00D+00
 Harris functional with IExCor=  402 and IRadAn=       5 diagonalized for initial guess.
 HarFok:  IExCor=  402 AccDes= 0.00D+00 IRadAn=         5 IDoV= 1 UseB2=F ITyADJ=14
 ICtDFT=  3500011 ScaDFX=  1.000000  1.000000  1.000000  1.000000
 FoFCou: FMM=F IPFlag=           0 FMFlag=      100000 FMFlg1=           0
         NFxFlg=           0 DoJE=T BraDBF=F KetDBF=T FulRan=T
         wScrn=  0.000000 ICntrl=       500 IOpCl=  0 I1Cent=   200000004 NGrid=           0
         NMat0=    1 NMatS0=      1 NMatT0=    0 NMatD0=    1 NMtDS0=    0 NMtDT0=    0
 Petite list used in FoFCou.
 Keep R1 ints in memory in canonical form, NReq=13810310.
 Requested convergence on RMS density matrix=1.00D-08 within 128 cycles.
 Requested convergence on MAX density matrix=1.00D-06.
 Requested convergence on             energy=1.00D-06.
 No special actions if energy rises.
 Inv3:  Mode=1 IEnd=     6669243.
 Iteration    1 A*A^-1 deviation from unit magnitude is 3.33D-15 for    547.
 Iteration    1 A*A^-1 deviation from orthogonality  is 1.81D-15 for    913    598.
 Iteration    1 A^-1*A deviation from unit magnitude is 3.33D-15 for     25.
 Iteration    1 A^-1*A deviation from orthogonality  is 1.79D-15 for   1179    845.
 Error on total polarization charges =  0.00292
 SCF Done:  E(RB3LYP) =  -399.898248294     A.U. after   12 cycles
            NFock= 12  Conv=0.36D-08     -V/T= 2.0081
