 Entering Link 1 = C:\G16W\l1.exe PID=     27304.
  
 Copyright (c) 1988-2019, Gaussian, Inc.  All Rights Reserved.
  
 This is part of the Gaussian(R) 16 program.  It is based on
 the Gaussian(R) 09 system (copyright 2009, Gaussian, Inc.),
 the Gaussian(R) 03 system (copyright 2003, Gaussian, Inc.),
 the Gaussian(R) 98 system (copyright 1998, Gaussian, Inc.),
 the Gaussian(R) 94 system (copyright 1995, Gaussian, Inc.),
 the Gaussian 92(TM) system (copyright 1992, Gaussian, Inc.),
 the Gaussian 90(TM) system (copyright 1990, Gaussian, Inc.),
 the Gaussian 88(TM) system (copyright 1988, Gaussian, Inc.),
 the Gaussian 86(TM) system (copyright 1986, Carnegie Mellon
 University), and the Gaussian 82(TM) system (copyright 1983,
 Carnegie Mellon University). Gaussian is a federally registered
 trademark of Gaussian, Inc.
  
 This software contains proprietary and confidential information,
 including trade secrets, belonging to Gaussian, Inc.
  
 This software is provided under written license and may be
 used, copied, transmitted, or stored only in accord with that
 written license.
  
 The following legend is applicable only to US Government
 contracts under FAR:
  
                    RESTRICTED RIGHTS LEGEND
  
 Use, reproduction and disclosure by the US Government is
 subject to restrictions as set forth in subparagraphs (a)
 and (c) of the Commercial Computer Software - Restricted
 Rights clause in FAR 52.227-19.
  
 Gaussian, Inc.
 340 Quinnipiac St., Bldg. 40, Wallingford CT 06492
  
  
 ---------------------------------------------------------------
 Warning -- This program may not be used in any manner that
 competes with the business of Gaussian, Inc. or will provide
 assistance to any competitor of Gaussian, Inc.  The licensee
 of this program is prohibited from giving any competitor of
 Gaussian, Inc. access to this program.  By using this program,
 the user acknowledges that Gaussian, Inc. is engaged in the
 business of creating and licensing software in the field of
 computational chemistry and represents and warrants to the
 licensee that it is not a competitor of Gaussian, Inc. and that
 it will not use this program in any manner prohibited above.
 ---------------------------------------------------------------
  

 Cite this work as:
 Gaussian 16, Revision C.01,
 M. J. Frisch, G. W. Trucks, H. B. Schlegel, G. E. Scuseria, 
 M. A. Robb, J. R. Cheeseman, G. Scalmani, V. Barone, 
 G. A. Petersson, H. Nakatsuji, X. Li, M. Caricato, A. V. Marenich, 
 J. Bloino, B. G. Janesko, R. Gomperts, B. Mennucci, H. P. Hratchian, 
 J. V. Ortiz, A. F. Izmaylov, J. L. Sonnenberg, D. Williams-Young, 
 F. Ding, F. Lipparini, F. Egidi, J. Goings, B. Peng, A. Petrone, 
 T. Henderson, D. Ranasinghe, V. G. Zakrzewski, J. Gao, N. Rega, 
 G. Zheng, W. Liang, M. Hada, M. Ehara, K. Toyota, R. Fukuda, 
 J. Hasegawa, M. Ishida, T. Nakajima, Y. Honda, O. Kitao, H. Nakai, 
 T. Vreven, K. Throssell, J. A. Montgomery, Jr., J. E. Peralta, 
 F. Ogliaro, M. J. Bearpark, J. J. Heyd, E. N. Brothers, K. N. Kudin, 
 V. N. Staroverov, T. A. Keith, R. Kobayashi, J. Normand, 
 K. Raghavachari, A. P. Rendell, J. C. Burant, S. S. Iyengar, 
 J. Tomasi, M. Cossi, J. M. Millam, M. Klene, C. Adamo, R. Cammi, 
 J. W. Ochterski, R. L. Martin, K. Morokuma, O. Farkas, 
 J. B. Foresman, and D. J. Fox, Gaussian, Inc., Wallingford CT, 2019.
 
 ******************************************
 Gaussian 16:  EM64W-G16RevC.01 30-May-2019
                30-Jul-2023 
 ******************************************
 %chk=D:\Wu Group Data\Gaussian\Benzene amine.chk
 -----------------------------------------------------------
 # opt b3lyp/3-21+g scrf=(solvent=toluene) geom=connectivity
 -----------------------------------------------------------
 1/18=20,19=15,26=3,38=1,57=2/1,3;
 2/9=110,12=2,17=6,18=5,40=1/2;
 3/5=5,7=10,11=2,25=1,30=1,70=2201,71=1,72=13,74=-5/1,2,3;
 4//1;
 5/5=2,38=5,53=13/2;
 6/7=2,8=2,9=2,10=2,28=1/1;
 7//1,2,3,16;
 1/18=20,19=15,26=3/3(2);
 2/9=110/2;
 99//99;
 2/9=110/2;
 3/5=5,7=10,11=2,25=1,30=1,70=2205,71=1,72=13,74=-5/1,2,3;
 4/5=5,16=3,69=1/1;
 5/5=2,38=5,53=13/2;
 7//1,2,3,16;
 1/18=20,19=15,26=3/3(-5);
 2/9=110/2;
 6/7=2,8=2,9=2,10=2,19=2,28=1/1;
 99/9=1/99;
 -------------------
 Title Card Required
 -------------------
 Symbolic Z-matrix:
 Charge =  0 Multiplicity = 1
 C                    -2.53393   1.93975  -0.37091 
 C                    -1.16164   1.96495  -0.08787 
 C                    -0.54442   3.16756   0.28186 
 C                    -1.29948   4.34496   0.36854 
 C                    -2.67177   4.31976   0.0855 
 C                    -3.28899   3.11715  -0.28423 
 H                    -3.00519   1.02153  -0.6532 
 H                     0.50335   3.1868    0.49797 
 H                    -0.82822   5.26318   0.65083 
 H                    -4.33676   3.09791  -0.50034 
 C                     0.16418   0.58931  -1.54121 
 H                     0.74069  -0.30967  -1.6074 
 H                    -0.64589   0.5457   -2.23892 
 H                     0.78627   1.42955  -1.76902 
 N                    -0.36961   0.72991  -0.17879 
 H                     0.38746   0.77066   0.47327 
 O                    -3.44225   5.52119   0.17394 
 H                    -3.79805   5.60912   1.06123 
 

 GradGradGradGradGradGradGradGradGradGradGradGradGradGradGradGradGradGrad
 Berny optimization.
 Initialization pass.
                           ----------------------------
                           !    Initial Parameters    !
                           ! (Angstroms and Degrees)  !
 --------------------------                            --------------------------
 ! Name  Definition              Value          Derivative Info.                !
 --------------------------------------------------------------------------------
 ! R1    R(1,2)                  1.4014         estimate D2E/DX2                !
 ! R2    R(1,6)                  1.4014         estimate D2E/DX2                !
 ! R3    R(1,7)                  1.07           estimate D2E/DX2                !
 ! R4    R(2,3)                  1.4014         estimate D2E/DX2                !
 ! R5    R(2,15)                 1.47           estimate D2E/DX2                !
 ! R6    R(3,4)                  1.4014         estimate D2E/DX2                !
 ! R7    R(3,8)                  1.07           estimate D2E/DX2                !
 ! R8    R(4,5)                  1.4014         estimate D2E/DX2                !
 ! R9    R(4,9)                  1.07           estimate D2E/DX2                !
 ! R10   R(5,6)                  1.4014         estimate D2E/DX2                !
 ! R11   R(5,17)                 1.43           estimate D2E/DX2                !
 ! R12   R(6,10)                 1.07           estimate D2E/DX2                !
 ! R13   R(11,12)                1.07           estimate D2E/DX2                !
 ! R14   R(11,13)                1.07           estimate D2E/DX2                !
 ! R15   R(11,14)                1.07           estimate D2E/DX2                !
 ! R16   R(11,15)                1.47           estimate D2E/DX2                !
 ! R17   R(15,16)                1.0            estimate D2E/DX2                !
 ! R18   R(17,18)                0.96           estimate D2E/DX2                !
 ! A1    A(2,1,6)              120.0            estimate D2E/DX2                !
 ! A2    A(2,1,7)              120.0            estimate D2E/DX2                !
 ! A3    A(6,1,7)              120.0            estimate D2E/DX2                !
 ! A4    A(1,2,3)              120.0            estimate D2E/DX2                !
 ! A5    A(1,2,15)             120.0            estimate D2E/DX2                !
 ! A6    A(3,2,15)             120.0            estimate D2E/DX2                !
 ! A7    A(2,3,4)              120.0            estimate D2E/DX2                !
 ! A8    A(2,3,8)              120.0            estimate D2E/DX2                !
 ! A9    A(4,3,8)              120.0            estimate D2E/DX2                !
 ! A10   A(3,4,5)              120.0            estimate D2E/DX2                !
 ! A11   A(3,4,9)              120.0            estimate D2E/DX2                !
 ! A12   A(5,4,9)              120.0            estimate D2E/DX2                !
 ! A13   A(4,5,6)              120.0            estimate D2E/DX2                !
 ! A14   A(4,5,17)             120.0            estimate D2E/DX2                !
 ! A15   A(6,5,17)             120.0            estimate D2E/DX2                !
 ! A16   A(1,6,5)              120.0            estimate D2E/DX2                !
 ! A17   A(1,6,10)             120.0            estimate D2E/DX2                !
 ! A18   A(5,6,10)             120.0            estimate D2E/DX2                !
 ! A19   A(12,11,13)           109.4712         estimate D2E/DX2                !
 ! A20   A(12,11,14)           109.4712         estimate D2E/DX2                !
 ! A21   A(12,11,15)           109.4712         estimate D2E/DX2                !
 ! A22   A(13,11,14)           109.4712         estimate D2E/DX2                !
 ! A23   A(13,11,15)           109.4712         estimate D2E/DX2                !
 ! A24   A(14,11,15)           109.4712         estimate D2E/DX2                !
 ! A25   A(2,15,11)            109.4712         estimate D2E/DX2                !
 ! A26   A(2,15,16)            109.4712         estimate D2E/DX2                !
 ! A27   A(11,15,16)           109.4712         estimate D2E/DX2                !
 ! A28   A(5,17,18)            109.5            estimate D2E/DX2                !
 ! D1    D(6,1,2,3)              0.0            estimate D2E/DX2                !
 ! D2    D(6,1,2,15)           180.0            estimate D2E/DX2                !
 ! D3    D(7,1,2,3)           -180.0            estimate D2E/DX2                !
 ! D4    D(7,1,2,15)             0.0            estimate D2E/DX2                !
 ! D5    D(2,1,6,5)              0.0            estimate D2E/DX2                !
 ! D6    D(2,1,6,10)           180.0            estimate D2E/DX2                !
 ! D7    D(7,1,6,5)           -180.0            estimate D2E/DX2                !
 ! D8    D(7,1,6,10)             0.0            estimate D2E/DX2                !
 ! D9    D(1,2,3,4)              0.0            estimate D2E/DX2                !
 ! D10   D(1,2,3,8)           -179.9999         estimate D2E/DX2                !
 ! D11   D(15,2,3,4)          -180.0            estimate D2E/DX2                !
 ! D12   D(15,2,3,8)             0.0001         estimate D2E/DX2                !
 ! D13   D(1,2,15,11)           90.0            estimate D2E/DX2                !
 ! D14   D(1,2,15,16)         -150.0            estimate D2E/DX2                !
 ! D15   D(3,2,15,11)          -90.0            estimate D2E/DX2                !
 ! D16   D(3,2,15,16)           30.0            estimate D2E/DX2                !
 ! D17   D(2,3,4,5)              0.0            estimate D2E/DX2                !
 ! D18   D(2,3,4,9)           -179.9999         estimate D2E/DX2                !
 ! D19   D(8,3,4,5)            179.9999         estimate D2E/DX2                !
 ! D20   D(8,3,4,9)              0.0            estimate D2E/DX2                !
 ! D21   D(3,4,5,6)              0.0001         estimate D2E/DX2                !
 ! D22   D(3,4,5,17)          -179.9999         estimate D2E/DX2                !
 ! D23   D(9,4,5,6)            180.0            estimate D2E/DX2                !
 ! D24   D(9,4,5,17)             0.0001         estimate D2E/DX2                !
 ! D25   D(4,5,6,1)             -0.0001         estimate D2E/DX2                !
 ! D26   D(4,5,6,10)          -180.0            estimate D2E/DX2                !
 ! D27   D(17,5,6,1)           179.9998         estimate D2E/DX2                !
 ! D28   D(17,5,6,10)           -0.0001         estimate D2E/DX2                !
 ! D29   D(4,5,17,18)          -90.541          estimate D2E/DX2                !
 ! D30   D(6,5,17,18)           89.4591         estimate D2E/DX2                !
 ! D31   D(12,11,15,2)        -180.0            estimate D2E/DX2                !
 ! D32   D(12,11,15,16)         60.0            estimate D2E/DX2                !
 ! D33   D(13,11,15,2)         -60.0            estimate D2E/DX2                !
 ! D34   D(13,11,15,16)        180.0            estimate D2E/DX2                !
 ! D35   D(14,11,15,2)          60.0            estimate D2E/DX2                !
 ! D36   D(14,11,15,16)        -60.0            estimate D2E/DX2                !
 --------------------------------------------------------------------------------
 Trust Radius=3.00D-01 FncErr=1.00D-07 GrdErr=1.00D-06 EigMax=2.50D+02 EigMin=1.00D-04
 Number of steps in this run=     92 maximum allowed number of steps=    108.
 GradGradGradGradGradGradGradGradGradGradGradGradGradGradGradGradGradGrad

                          Input orientation:                          
 ---------------------------------------------------------------------
 Center     Atomic      Atomic             Coordinates (Angstroms)
 Number     Number       Type             X           Y           Z
 ---------------------------------------------------------------------
      1          6           0       -2.533926    1.939747   -0.370909
      2          6           0       -1.161639    1.964949   -0.087866
      3          6           0       -0.544418    3.167557    0.281859
      4          6           0       -1.299484    4.344962    0.368540
      5          6           0       -2.671772    4.319760    0.085496
      6          6           0       -3.288993    3.117152   -0.284228
      7          1           0       -3.005188    1.021530   -0.653202
      8          1           0        0.503355    3.186799    0.497967
      9          1           0       -0.828222    5.263179    0.650832
     10          1           0       -4.336765    3.097910   -0.500338
     11          6           0        0.164178    0.589309   -1.541215
     12          1           0        0.740688   -0.309666   -1.607398
     13          1           0       -0.645886    0.545703   -2.238921
     14          1           0        0.786273    1.429548   -1.769022
     15          7           0       -0.369611    0.729909   -0.178790
     16          1           0        0.387459    0.770662    0.473272
     17          8           0       -3.442247    5.521194    0.173943
     18          1           0       -3.798054    5.609116    1.061227
 ---------------------------------------------------------------------
                    Distance matrix (angstroms):
                    1          2          3          4          5
     1  C    0.000000
     2  C    1.401400   0.000000
     3  C    2.427296   1.401400   0.000000
     4  C    2.802800   2.427296   1.401400   0.000000
     5  C    2.427296   2.802800   2.427296   1.401400   0.000000
     6  C    1.401400   2.427296   2.802800   2.427296   1.401400
     7  H    1.070000   2.146700   3.396345   3.872800   3.396345
     8  H    3.396345   2.146700   1.070000   2.146700   3.396345
     9  H    3.872800   3.396345   2.146700   1.070000   2.146700
    10  H    2.146700   3.396345   3.872800   3.396345   2.146700
    11  C    3.236212   2.400500   3.236212   4.460314   4.960349
    12  H    4.160753   3.331921   4.160753   5.452723   5.995194
    13  H    2.999587   2.628174   3.638508   4.654075   4.873462
    14  H    3.638508   2.628174   2.999587   4.173630   4.873462
    15  N    2.486942   1.470000   2.486942   3.772644   4.272800
    16  H    3.257897   2.034920   2.578785   3.953778   4.701633
    17  O    3.734792   4.232800   3.734792   2.452106   1.430000
    18  H    4.136822   4.642310   4.141832   2.884571   1.970533
                    6          7          8          9         10
     6  C    0.000000
     7  H    2.146700   0.000000
     8  H    3.872800   4.280590   0.000000
     9  H    3.396345   4.942800   2.471400   0.000000
    10  H    1.070000   2.471400   4.942800   4.280590   0.000000
    11  C    4.460314   3.319678   3.319677   5.256899   5.256899
    12  H    5.452723   4.088296   4.088295   6.214313   6.214313
    13  H    4.173630   2.882225   3.973248   5.535206   4.812382
    14  H    4.654075   3.973249   2.882224   4.812381   5.535206
    15  N    3.772644   2.693767   2.693766   4.631321   4.631321
    16  H    4.426750   3.583564   2.419041   4.657479   5.355585
    17  O    2.452106   4.595886   4.595886   2.669667   2.669667
    18  H    2.877372   4.961234   4.968601   3.017945   3.005802
                   11         12         13         14         15
    11  C    0.000000
    12  H    1.070000   0.000000
    13  H    1.070000   1.747303   0.000000
    14  H    1.070000   1.747303   1.747303   0.000000
    15  N    1.470000   2.086720   2.086720   2.086720   0.000000
    16  H    2.034920   2.370879   2.911082   2.370879   1.000000
    17  O    6.345988   7.393852   6.196536   6.196536   5.702800
    18  H    6.904379   7.921724   6.816545   6.818735   6.090856
                   16         17         18
    16  H    0.000000
    17  O    6.109321   0.000000
    18  H    6.424550   0.960000   0.000000
 Stoichiometry    C7H9NO
 Framework group  C1[X(C7H9NO)]
 Deg. of freedom    48
 Full point group                 C1      NOp   1
 Largest Abelian subgroup         C1      NOp   1
 Largest concise Abelian subgroup C1      NOp   1
                         Standard orientation:                         
 ---------------------------------------------------------------------
 Center     Atomic      Atomic             Coordinates (Angstroms)
 Number     Number       Type             X           Y           Z
 ---------------------------------------------------------------------
      1          6           0        0.231081    1.223347   -0.248953
      2          6           0        0.934876    0.014436   -0.333397
      3          6           0        0.254417   -1.203333   -0.199468
      4          6           0       -1.129837   -1.212191    0.018904
      5          6           0       -1.833631   -0.003280    0.103348
      6          6           0       -1.153172    1.214489   -0.030581
      7          1           0        0.750627    2.153140   -0.351210
      8          1           0        0.791779   -2.126363   -0.263941
      9          1           0       -1.649382   -2.141984    0.121162
     10          1           0       -1.690534    2.137519    0.033895
     11          6           0        3.086622    0.056810    0.729895
     12          1           0        4.143530    0.063573    0.563163
     13          1           0        2.804434    0.938898    1.265797
     14          1           0        2.821232   -0.807961    1.301419
     15          7           0        2.386890    0.023728   -0.562459
     16          1           0        2.650617   -0.800653   -1.063302
     17          8           0       -3.246134   -0.012319    0.326180
     18          1           0       -3.703604   -0.025381   -0.517710
 ---------------------------------------------------------------------
 Rotational constants (GHZ):           4.5239628           0.9585158           0.8447180
 Standard basis: 3-21+G (6D, 7F)
 There are   135 symmetry adapted cartesian basis functions of A   symmetry.
 There are   135 symmetry adapted basis functions of A   symmetry.
   135 basis functions,   198 primitive gaussians,   135 cartesian basis functions
    33 alpha electrons       33 beta electrons
       nuclear repulsion energy       420.0442302931 Hartrees.
 NAtoms=   18 NActive=   18 NUniq=   18 SFac= 1.00D+00 NAtFMM=   60 NAOKFM=F Big=F
 Integral buffers will be    131072 words long.
 Raffenetti 2 integral format.
 Two-electron integral symmetry is turned on.
 ------------------------------------------------------------------------------
 Polarizable Continuum Model (PCM)
 =================================
 Model                : PCM.
 Atomic radii         : UFF (Universal Force Field).
 Polarization charges : Total charges.
 Charge compensation  : None.
 Solution method      : On-the-fly selection.
 Cavity type          : Scaled VdW (van der Waals Surface) (Alpha=1.100).
 Cavity algorithm     : GePol (No added spheres)
                        Default sphere list used, NSphG=   18.
                        Lebedev-Laikov grids with approx.  5.0 points / Ang**2.
                        Smoothing algorithm: York/Karplus (Gamma=1.0000).
                        Polarization charges: spherical gaussians, with
                                              point-specific exponents (IZeta= 3).
                        Self-potential: point-specific (ISelfS= 7).
                        Self-field    : sphere-specific E.n sum rule (ISelfD= 2).
 1st derivatives      : Analytical E(r).r(x)/FMM algorithm (CHGder, D1EAlg=3).
                        Cavity 1st derivative terms included.
 Solvent              : Toluene, Eps=   2.374100 Eps(inf)=   2.238315
 ------------------------------------------------------------------------------
 Spheres list:
 ISph  on   Nord     Re0    Alpha      Xe            Ye            Ze
    1   C      1    1.9255  1.100      0.231081      1.223347     -0.248953
    2   C      2    1.9255  1.100      0.934876      0.014436     -0.333397
    3   C      3    1.9255  1.100      0.254417     -1.203333     -0.199468
    4   C      4    1.9255  1.100     -1.129837     -1.212191      0.018904
    5   C      5    1.9255  1.100     -1.833631     -0.003280      0.103348
    6   C      6    1.9255  1.100     -1.153172      1.214489     -0.030581
    7   H      7    1.4430  1.100      0.750627      2.153140     -0.351210
    8   H      8    1.4430  1.100      0.791779     -2.126363     -0.263941
    9   H      9    1.4430  1.100     -1.649382     -2.141984      0.121162
   10   H     10    1.4430  1.100     -1.690534      2.137519      0.033895
   11   C     11    1.9255  1.100      3.086622      0.056810      0.729895
   12   H     12    1.4430  1.100      4.143530      0.063573      0.563163
   13   H     13    1.4430  1.100      2.804434      0.938898      1.265797
   14   H     14    1.4430  1.100      2.821232     -0.807961      1.301419
   15   N     15    1.8300  1.100      2.386890      0.023728     -0.562459
   16   H     16    1.4430  1.100      2.650617     -0.800653     -1.063302
   17   O     17    1.7500  1.100     -3.246134     -0.012319      0.326180
   18   H     18    1.4430  1.100     -3.703604     -0.025381     -0.517710
 ------------------------------------------------------------------------------
 One-electron integrals computed using PRISM.
 NBasis=   135 RedAO= T EigKep=  4.25D-06  NBF=   135
 NBsUse=   135 1.00D-06 EigRej= -1.00D+00 NBFU=   135
 ExpMin= 4.38D-02 ExpMax= 3.22D+02 ExpMxC= 3.22D+02 IAcc=3 IRadAn=         5 AccDes= 0.00D+00
 Harris functional with IExCor=  402 and IRadAn=       5 diagonalized for initial guess.
 HarFok:  IExCor=  402 AccDes= 0.00D+00 IRadAn=         5 IDoV= 1 UseB2=F ITyADJ=14
 ICtDFT=  3500011 ScaDFX=  1.000000  1.000000  1.000000  1.000000
 FoFCou: FMM=F IPFlag=           0 FMFlag=      100000 FMFlg1=           0
         NFxFlg=           0 DoJE=T BraDBF=F KetDBF=T FulRan=T
         wScrn=  0.000000 ICntrl=       500 IOpCl=  0 I1Cent=   200000004 NGrid=           0
         NMat0=    1 NMatS0=      1 NMatT0=    0 NMatD0=    1 NMtDS0=    0 NMtDT0=    0
 Petite list used in FoFCou.
 Keep R1 ints in memory in canonical form, NReq=43716158.
 Requested convergence on RMS density matrix=1.00D-08 within 128 cycles.
 Requested convergence on MAX density matrix=1.00D-06.
 Requested convergence on             energy=1.00D-06.
 No special actions if energy rises.
 Inv3:  Mode=1 IEnd=     6669243.
 Iteration    1 A*A^-1 deviation from unit magnitude is 3.77D-15 for   1032.
 Iteration    1 A*A^-1 deviation from orthogonality  is 1.47D-15 for    913    598.
 Iteration    1 A^-1*A deviation from unit magnitude is 3.33D-15 for   1032.
 Iteration    1 A^-1*A deviation from orthogonality  is 1.46D-15 for   1132    324.
 Error on total polarization charges =  0.01064
 SCF Done:  E(RB3LYP) =  -399.962515150     A.U. after   13 cycles
            NFock= 13  Conv=0.73D-08     -V/T= 2.0088

 **********************************************************************

            Population analysis using the SCF Density.

 **********************************************************************

 Orbital symmetries:
       Occupied  (A) (A) (A) (A) (A) (A) (A) (A) (A) (A) (A) (A)
                 (A) (A) (A) (A) (A) (A) (A) (A) (A) (A) (A) (A)
                 (A) (A) (A) (A) (A) (A) (A) (A) (A)
       Virtual   (A) (A) (A) (A) (A) (A) (A) (A) (A) (A) (A) (A)
                 (A) (A) (A) (A) (A) (A) (A) (A) (A) (A) (A) (A)
                 (A) (A) (A) (A) (A) (A) (A) (A) (A) (A) (A) (A)
                 (A) (A) (A) (A) (A) (A) (A) (A) (A) (A) (A) (A)
                 (A) (A) (A) (A) (A) (A) (A) (A) (A) (A) (A) (A)
                 (A) (A) (A) (A) (A) (A) (A) (A) (A) (A) (A) (A)
                 (A) (A) (A) (A) (A) (A) (A) (A) (A) (A) (A) (A)
                 (A) (A) (A) (A) (A) (A) (A) (A) (A) (A) (A) (A)
                 (A) (A) (A) (A) (A) (A)
 The electronic state is 1-A.
 Alpha  occ. eigenvalues --  -19.08677 -14.26510 -10.20302 -10.17719 -10.14738
 Alpha  occ. eigenvalues --  -10.14646 -10.14620 -10.14411 -10.14347  -1.05973
 Alpha  occ. eigenvalues --   -0.93713  -0.86372  -0.76982  -0.75180  -0.68226
 Alpha  occ. eigenvalues --   -0.63756  -0.61440  -0.56143  -0.52798  -0.49581
 Alpha  occ. eigenvalues --   -0.46769  -0.46676  -0.44764  -0.43927  -0.42840
 Alpha  occ. eigenvalues --   -0.40810  -0.38680  -0.37769  -0.35995  -0.31243
 Alpha  occ. eigenvalues --   -0.27269  -0.26920  -0.23068
 Alpha virt. eigenvalues --   -0.02465  -0.01730   0.00375   0.00765   0.02440
 Alpha virt. eigenvalues --    0.03106   0.03166   0.05040   0.05721   0.06599
 Alpha virt. eigenvalues --    0.06917   0.08088   0.08901   0.09309   0.10407
 Alpha virt. eigenvalues --    0.12195   0.12394   0.12984   0.13210   0.14206
 Alpha virt. eigenvalues --    0.14441   0.15478   0.15749   0.16176   0.16998
 Alpha virt. eigenvalues --    0.17664   0.18679   0.19241   0.19653   0.19990
 Alpha virt. eigenvalues --    0.21346   0.22079   0.23076   0.23754   0.24303
 Alpha virt. eigenvalues --    0.25172   0.25740   0.26470   0.26913   0.28391
 Alpha virt. eigenvalues --    0.28931   0.29679   0.30308   0.31406   0.32312
 Alpha virt. eigenvalues --    0.33583   0.33940   0.35754   0.36861   0.37832
 Alpha virt. eigenvalues --    0.38009   0.39019   0.39992   0.43126   0.46056
 Alpha virt. eigenvalues --    0.59613   0.63516   0.78592   0.79269   0.80793
 Alpha virt. eigenvalues --    0.82814   0.86145   0.86785   0.87758   0.88130
 Alpha virt. eigenvalues --    0.89360   0.91114   0.93092   0.93960   0.95338
 Alpha virt. eigenvalues --    1.01512   1.04297   1.07157   1.12907   1.13052
 Alpha virt. eigenvalues --    1.14594   1.14816   1.19091   1.22358   1.26011
 Alpha virt. eigenvalues --    1.28506   1.29617   1.32622   1.38238   1.39205
 Alpha virt. eigenvalues --    1.47735   1.51451   1.52064   1.54640   1.57688
 Alpha virt. eigenvalues --    1.66110   1.74011   1.74871   1.76573   1.85397
 Alpha virt. eigenvalues --    1.86526   1.96120   2.00402   2.09049   2.44416
 Alpha virt. eigenvalues --    2.85486   3.32566
          Condensed to atoms (all electrons):
               1          2          3          4          5          6
     1  C   14.404322  -3.101552   1.435412  -3.163000   2.620921  -5.198785
     2  C   -3.101552  14.957422  -6.279020   2.039647  -3.330423   2.327990
     3  C    1.435412  -6.279020  16.628477  -4.377294   3.009136  -4.136211
     4  C   -3.163000   2.039647  -4.377294  11.229707  -3.941844   3.342619
     5  C    2.620921  -3.330423   3.009136  -3.941844  12.174478  -3.863954
     6  C   -5.198785   2.327990  -4.136211   3.342619  -3.863954  12.477618
     7  H    0.395328  -0.027983  -0.063384   0.008206   0.002554   0.015399
     8  H   -0.066578  -0.019465   0.347552   0.059815   0.001719   0.013723
     9  H    0.000174   0.021633  -0.022188   0.392597  -0.033225  -0.027466
    10  H   -0.015587   0.004496  -0.005530  -0.023711  -0.021705   0.393222
    11  C    0.208286  -0.872327   0.273880  -0.130776   0.047742  -0.122001
    12  H   -0.018755   0.045520   0.014544   0.000556   0.001008  -0.001967
    13  H   -0.027145  -0.024616   0.076260  -0.002366   0.006030  -0.016875
    14  H    0.130058   0.108074  -0.244028  -0.002044  -0.007940   0.020775
    15  N   -0.184288  -0.548944  -0.051952   0.143015  -0.091538   0.324628
    16  H    0.039982   0.017330  -0.007163  -0.030052   0.003790  -0.010195
    17  O    0.059088  -0.017408   0.074430  -0.191736   0.079342  -0.214259
    18  H   -0.036056   0.002972  -0.037542  -0.025720   0.109202  -0.012075
               7          8          9         10         11         12
     1  C    0.395328  -0.066578   0.000174  -0.015587   0.208286  -0.018755
     2  C   -0.027983  -0.019465   0.021633   0.004496  -0.872327   0.045520
     3  C   -0.063384   0.347552  -0.022188  -0.005530   0.273880   0.014544
     4  C    0.008206   0.059815   0.392597  -0.023711  -0.130776   0.000556
     5  C    0.002554   0.001719  -0.033225  -0.021705   0.047742   0.001008
     6  C    0.015399   0.013723  -0.027466   0.393222  -0.122001  -0.001967
     7  H    0.412122  -0.000025   0.000000  -0.003020   0.001652  -0.000006
     8  H   -0.000025   0.430194  -0.002895   0.000000   0.003964  -0.000011
     9  H    0.000000  -0.002895   0.416299  -0.000025   0.000255   0.000000
    10  H   -0.003020   0.000000  -0.000025   0.416116   0.000071   0.000000
    11  C    0.001652   0.003964   0.000255   0.000071   6.329179   0.356381
    12  H   -0.000006  -0.000011   0.000000   0.000000   0.356381   0.460646
    13  H    0.000127  -0.000028   0.000000   0.000001   0.378787  -0.018395
    14  H    0.000000   0.000992   0.000002   0.000000   0.393008  -0.031747
    15  N    0.001121  -0.015002  -0.001233  -0.000965  -0.038829  -0.059428
    16  H    0.000047   0.000754   0.000001   0.000001  -0.075162  -0.001888
    17  O   -0.000475  -0.000461  -0.003983  -0.004170   0.000528   0.000000
    18  H    0.000001   0.000000   0.000125   0.000139  -0.000011   0.000000
              13         14         15         16         17         18
     1  C   -0.027145   0.130058  -0.184288   0.039982   0.059088  -0.036056
     2  C   -0.024616   0.108074  -0.548944   0.017330  -0.017408   0.002972
     3  C    0.076260  -0.244028  -0.051952  -0.007163   0.074430  -0.037542
     4  C   -0.002366  -0.002044   0.143015  -0.030052  -0.191736  -0.025720
     5  C    0.006030  -0.007940  -0.091538   0.003790   0.079342   0.109202
     6  C   -0.016875   0.020775   0.324628  -0.010195  -0.214259  -0.012075
     7  H    0.000127   0.000000   0.001121   0.000047  -0.000475   0.000001
     8  H   -0.000028   0.000992  -0.015002   0.000754  -0.000461   0.000000
     9  H    0.000000   0.000002  -0.001233   0.000001  -0.003983   0.000125
    10  H    0.000001   0.000000  -0.000965   0.000001  -0.004170   0.000139
    11  C    0.378787   0.393008  -0.038829  -0.075162   0.000528  -0.000011
    12  H   -0.018395  -0.031747  -0.059428  -0.001888   0.000000   0.000000
    13  H    0.448182  -0.034427  -0.053696   0.003274  -0.000002   0.000000
    14  H   -0.034427   0.534694  -0.112368  -0.002861   0.000010   0.000000
    15  N   -0.053696  -0.112368   7.801061   0.298589   0.000736  -0.000020
    16  H    0.003274  -0.002861   0.298589   0.372995  -0.000008   0.000000
    17  O   -0.000002   0.000010   0.000736  -0.000008   8.676617   0.193015
    18  H    0.000000   0.000000  -0.000020   0.000000   0.193015   0.345027
 Mulliken charges:
               1
     1  C   -1.481825
     2  C    0.696653
     3  C   -0.635379
     4  C    0.672381
     5  C   -0.765294
     6  C    0.687812
     7  H    0.258335
     8  H    0.245753
     9  H    0.259928
    10  H    0.260667
    11  C   -0.754626
    12  H    0.253542
    13  H    0.264889
    14  H    0.247801
    15  N   -0.410886
    16  H    0.390569
    17  O   -0.651263
    18  H    0.460943
 Sum of Mulliken charges =   0.00000
 Mulliken charges with hydrogens summed into heavy atoms:
               1
     1  C   -1.223489
     2  C    0.696653
     3  C   -0.389626
     4  C    0.932309
     5  C   -0.765294
     6  C    0.948479
    11  C    0.011606
    15  N   -0.020318
    17  O   -0.190320
 Electronic spatial extent (au):  <R**2>=           1378.7538
 Charge=              0.0000 electrons
 Dipole moment (field-independent basis, Debye):
    X=              1.0989    Y=             -1.3198    Z=             -1.1145  Tot=              2.0474
 Quadrupole moment (field-independent basis, Debye-Ang):
   XX=            -53.4574   YY=            -49.4607   ZZ=            -59.3952
   XY=             -3.9506   XZ=             10.1620   YZ=              2.2141
 Traceless Quadrupole moment (field-independent basis, Debye-Ang):
   XX=              0.6470   YY=              4.6437   ZZ=             -5.2907
   XY=             -3.9506   XZ=             10.1620   YZ=              2.2141
 Octapole moment (field-independent basis, Debye-Ang**2):
  XXX=              4.4457  YYY=             -0.7962  ZZZ=              1.4052  XYY=             -2.8657
  XXY=            -11.3864  XXZ=            -22.0048  XZZ=             -1.7375  YZZ=             -2.0770
  YYZ=             -0.4424  XYZ=              6.4748
 Hexadecapole moment (field-independent basis, Debye-Ang**3):
 XXXX=          -1311.0387 YYYY=           -296.2741 ZZZZ=           -133.8460 XXXY=            -30.5589
 XXXZ=            129.6900 YYYX=             -4.3478 YYYZ=              1.8203 ZZZX=              3.5827
 ZZZY=              5.5047 XXYY=           -280.5276 XXZZ=           -261.9544 YYZZ=            -83.2499
 XXYZ=             18.5716 YYXZ=             -1.9261 ZZXY=             -5.7113
 N-N= 4.200442302931D+02 E-N=-1.769209050105D+03  KE= 3.964887894740D+02
 D1PCM: PCM CHGder 1st derivatives, ID1Alg=3 FixD1E=F DoIter=F DoCFld=F I1PDM=0.
 Calling FoFJK, ICntrl=      2127 FMM=F ISym2X=0 I1Cent= 0 IOpClX= 0 NMat=1 NMatS=1 NMatT=0.
 ***** Axes restored to original set *****
 -------------------------------------------------------------------
 Center     Atomic                   Forces (Hartrees/Bohr)
 Number     Number              X              Y              Z
 -------------------------------------------------------------------
      1        6           0.005696638    0.013209005    0.000907661
      2        6           0.004126099   -0.010452128    0.008613241
      3        6          -0.017390282    0.002597497   -0.003361965
      4        6          -0.006599107   -0.008016103   -0.002674822
      5        6           0.005271770   -0.007855639    0.002050321
      6        6           0.012608738    0.001238990    0.000632721
      7        1          -0.003602818   -0.009691881   -0.001483713
      8        1           0.011224099    0.000676289    0.002107405
      9        1           0.003259607    0.009902141    0.002528961
     10        1          -0.010254921    0.001167772   -0.001844217
     11        6           0.001748794   -0.005396732    0.001156551
     12        1           0.008750948   -0.015248089   -0.001886778
     13        1          -0.011884472   -0.001135004   -0.010877487
     14        1           0.013543864    0.015703162   -0.011764480
     15        7          -0.030995429    0.013192186   -0.001742584
     16        1           0.015423019   -0.001315306    0.017131603
     17        8           0.012727791   -0.004871419   -0.028132977
     18        1          -0.013654339    0.006295260    0.028640558
 -------------------------------------------------------------------
 Cartesian Forces:  Max     0.030995429 RMS     0.010914759

 GradGradGradGradGradGradGradGradGradGradGradGradGradGradGradGradGradGrad
 Berny optimization.
 FormGI is forming the generalized inverse of G from B-inverse, IUseBI=4.
 Internal  Forces:  Max     0.032107259 RMS     0.007494974
 Search for a local minimum.
 Step number   1 out of a maximum of   92
 All quantities printed in internal units (Hartrees-Bohrs-Radians)
 Mixed Optimization -- RFO/linear search
 Second derivative matrix not updated -- first step.
 ITU=  0
     Eigenvalues ---    0.00766   0.00766   0.01295   0.01668   0.01932
     Eigenvalues ---    0.02070   0.02070   0.02070   0.02070   0.02070
     Eigenvalues ---    0.02070   0.02070   0.03399   0.07537   0.07537
     Eigenvalues ---    0.11287   0.16000   0.16000   0.16000   0.16000
     Eigenvalues ---    0.16000   0.16000   0.16000   0.16000   0.22000
     Eigenvalues ---    0.22981   0.23464   0.24000   0.25000   0.25000
     Eigenvalues ---    0.35740   0.35740   0.37230   0.37230   0.37230
     Eigenvalues ---    0.37230   0.37230   0.37230   0.37230   0.40989
     Eigenvalues ---    0.41268   0.41640   0.45389   0.45389   0.45389
     Eigenvalues ---    0.45389   0.47688   0.55473
 RFO step:  Lambda=-1.36965732D-02 EMin= 7.65814486D-03
 Linear search not attempted -- first point.
 Iteration  1 RMS(Cart)=  0.08388359 RMS(Int)=  0.00301699
 Iteration  2 RMS(Cart)=  0.00487256 RMS(Int)=  0.00064078
 Iteration  3 RMS(Cart)=  0.00003093 RMS(Int)=  0.00064057
 Iteration  4 RMS(Cart)=  0.00000003 RMS(Int)=  0.00064057
 Variable       Old X    -DE/DX   Delta X   Delta X   Delta X     New X
                                 (Linear)    (Quad)   (Total)
    R1        2.64826  -0.00253   0.00000  -0.00515  -0.00519   2.64307
    R2        2.64826  -0.00229   0.00000  -0.00506  -0.00506   2.64320
    R3        2.02201   0.01029   0.00000   0.02667   0.02667   2.04868
    R4        2.64826   0.00150   0.00000   0.00361   0.00357   2.65183
    R5        2.77790  -0.00622   0.00000  -0.01675  -0.01675   2.76115
    R6        2.64826  -0.00124   0.00000  -0.00250  -0.00249   2.64577
    R7        2.02201   0.01143   0.00000   0.02961   0.02961   2.05162
    R8        2.64826  -0.00624   0.00000  -0.01359  -0.01355   2.63471
    R9        2.02201   0.01060   0.00000   0.02746   0.02746   2.04947
   R10        2.64826  -0.00455   0.00000  -0.01013  -0.01009   2.63817
   R11        2.70231   0.00173   0.00000   0.00408   0.00408   2.70639
   R12        2.02201   0.01039   0.00000   0.02692   0.02692   2.04893
   R13        2.02201   0.01764   0.00000   0.04571   0.04571   2.06771
   R14        2.02201   0.01614   0.00000   0.04181   0.04181   2.06382
   R15        2.02201   0.02271   0.00000   0.05883   0.05883   2.08083
   R16        2.77790   0.02665   0.00000   0.07183   0.07183   2.84972
   R17        1.88973   0.02279   0.00000   0.04646   0.04646   1.93619
   R18        1.81414   0.03211   0.00000   0.05648   0.05648   1.87062
    A1        2.09440   0.00107   0.00000   0.00470   0.00469   2.09909
    A2        2.09440  -0.00187   0.00000  -0.01005  -0.01005   2.08434
    A3        2.09440   0.00080   0.00000   0.00535   0.00535   2.09974
    A4        2.09440  -0.00319   0.00000  -0.01096  -0.01106   2.08333
    A5        2.09440  -0.00379   0.00000  -0.01494  -0.01499   2.07941
    A6        2.09440   0.00698   0.00000   0.02590   0.02585   2.12024
    A7        2.09440   0.00168   0.00000   0.00825   0.00826   2.10265
    A8        2.09440  -0.00041   0.00000  -0.00167  -0.00167   2.09272
    A9        2.09440  -0.00127   0.00000  -0.00658  -0.00658   2.08781
   A10        2.09440  -0.00173   0.00000  -0.00767  -0.00763   2.08676
   A11        2.09440   0.00252   0.00000   0.01337   0.01328   2.10768
   A12        2.09440  -0.00079   0.00000  -0.00570  -0.00579   2.08861
   A13        2.09440   0.00232   0.00000   0.00753   0.00731   2.10170
   A14        2.09440  -0.00132   0.00000  -0.00438  -0.00478   2.08962
   A15        2.09440  -0.00099   0.00000  -0.00315  -0.00354   2.09086
   A16        2.09440  -0.00015   0.00000  -0.00185  -0.00178   2.09261
   A17        2.09440   0.00147   0.00000   0.00897   0.00892   2.10332
   A18        2.09440  -0.00132   0.00000  -0.00712  -0.00716   2.08724
   A19        1.91063  -0.00130   0.00000  -0.01898  -0.01927   1.89136
   A20        1.91063  -0.00299   0.00000  -0.00860  -0.00909   1.90154
   A21        1.91063  -0.00106   0.00000  -0.00758  -0.00800   1.90264
   A22        1.91063  -0.00402   0.00000  -0.02025  -0.02033   1.89030
   A23        1.91063  -0.00160   0.00000  -0.01353  -0.01372   1.89692
   A24        1.91063   0.01098   0.00000   0.06894   0.06864   1.97928
   A25        1.91063   0.01636   0.00000   0.07881   0.07645   1.98708
   A26        1.91063  -0.00466   0.00000   0.00965   0.00579   1.91642
   A27        1.91063  -0.00080   0.00000   0.03535   0.03272   1.94335
   A28        1.91114   0.00712   0.00000   0.04100   0.04100   1.95213
    D1        0.00000  -0.00005   0.00000  -0.00275  -0.00265  -0.00265
    D2        3.14159   0.00061   0.00000   0.01906   0.01882  -3.12277
    D3       -3.14159   0.00012   0.00000   0.00230   0.00241  -3.13918
    D4        0.00000   0.00078   0.00000   0.02410   0.02388   0.02388
    D5        0.00000  -0.00050   0.00000  -0.01454  -0.01456  -0.01456
    D6        3.14159  -0.00031   0.00000  -0.00885  -0.00881   3.13278
    D7       -3.14159  -0.00068   0.00000  -0.01958  -0.01967   3.12193
    D8        0.00000  -0.00048   0.00000  -0.01389  -0.01392  -0.01392
    D9        0.00000   0.00051   0.00000   0.01612   0.01613   0.01613
   D10       -3.14159   0.00049   0.00000   0.01551   0.01555  -3.12604
   D11       -3.14159  -0.00015   0.00000  -0.00568  -0.00586   3.13573
   D12        0.00000  -0.00017   0.00000  -0.00629  -0.00643  -0.00643
   D13        1.57080  -0.00456   0.00000  -0.11311  -0.11336   1.45744
   D14       -2.61799   0.00162   0.00000  -0.01564  -0.01553  -2.63352
   D15       -1.57080  -0.00391   0.00000  -0.09130  -0.09142  -1.66221
   D16        0.52360   0.00228   0.00000   0.00616   0.00641   0.53001
   D17        0.00000  -0.00042   0.00000  -0.01221  -0.01229  -0.01229
   D18       -3.14159   0.00018   0.00000   0.00513   0.00518  -3.13641
   D19        3.14159  -0.00040   0.00000  -0.01160  -0.01172   3.12987
   D20        0.00000   0.00020   0.00000   0.00574   0.00575   0.00575
   D21        0.00000  -0.00014   0.00000  -0.00507  -0.00511  -0.00511
   D22       -3.14159   0.00145   0.00000   0.04316   0.04317  -3.09842
   D23        3.14159  -0.00073   0.00000  -0.02241  -0.02239   3.11920
   D24        0.00000   0.00085   0.00000   0.02583   0.02589   0.02589
   D25        0.00000   0.00060   0.00000   0.01845   0.01851   0.01850
   D26       -3.14159   0.00040   0.00000   0.01276   0.01281  -3.12879
   D27        3.14159  -0.00099   0.00000  -0.02979  -0.02981   3.11178
   D28        0.00000  -0.00118   0.00000  -0.03548  -0.03551  -0.03551
   D29       -1.58024  -0.00082   0.00000  -0.02502  -0.02489  -1.60513
   D30        1.56136   0.00077   0.00000   0.02321   0.02308   1.58444
   D31        3.14159   0.00360   0.00000   0.05332   0.05427  -3.08732
   D32        1.04720  -0.00022   0.00000  -0.02841  -0.02922   1.01797
   D33       -1.04720   0.00038   0.00000   0.01714   0.01811  -1.02908
   D34        3.14159  -0.00344   0.00000  -0.06458  -0.06538   3.07621
   D35        1.04720   0.00120   0.00000   0.02627   0.02700   1.07420
   D36       -1.04720  -0.00263   0.00000  -0.05545  -0.05649  -1.10369
         Item               Value     Threshold  Converged?
 Maximum Force            0.032107     0.000450     NO 
 RMS     Force            0.007495     0.000300     NO 
 Maximum Displacement     0.381274     0.001800     NO 
 RMS     Displacement     0.086741     0.001200     NO 
 Predicted change in Energy=-7.462092D-03
 GradGradGradGradGradGradGradGradGradGradGradGradGradGradGradGradGradGrad

                          Input orientation:                          
 ---------------------------------------------------------------------
 Center     Atomic      Atomic             Coordinates (Angstroms)
 Number     Number       Type             X           Y           Z
 ---------------------------------------------------------------------
      1          6           0       -2.490142    1.969042   -0.382709
      2          6           0       -1.128297    2.005027   -0.065994
      3          6           0       -0.547152    3.217290    0.336383
      4          6           0       -1.324145    4.377391    0.439695
      5          6           0       -2.681542    4.326419    0.125441
      6          6           0       -3.265136    3.130184   -0.295771
      7          1           0       -2.940569    1.032525   -0.691503
      8          1           0        0.512220    3.258346    0.570310
      9          1           0       -0.878888    5.317806    0.745602
     10          1           0       -4.319373    3.108557   -0.548178
     11          6           0        0.160457    0.515744   -1.586562
     12          1           0        0.692508   -0.440295   -1.599113
     13          1           0       -0.699676    0.439707   -2.255237
     14          1           0        0.828794    1.301993   -1.970784
     15          7           0       -0.336835    0.782910   -0.188201
     16          1           0        0.435200    0.800559    0.485171
     17          8           0       -3.468165    5.522026    0.178611
     18          1           0       -3.893509    5.644090    1.064086
 ---------------------------------------------------------------------
                    Distance matrix (angstroms):
                    1          2          3          4          5
     1  C    0.000000
     2  C    1.398651   0.000000
     3  C    2.418766   1.403289   0.000000
     4  C    2.799293   2.433555   1.400080   0.000000
     5  C    2.419107   2.799657   2.414598   1.394231   0.000000
     6  C    1.398722   2.425872   2.791889   2.421545   1.396059
     7  H    1.084113   2.149732   3.399734   3.883370   3.403562
     8  H    3.403635   2.160322   1.085669   2.154428   3.396882
     9  H    3.883741   3.419853   2.165566   1.084533   2.148722
    10  H    2.161472   3.410754   3.876070   3.399591   2.149289
    11  C    3.253769   2.488167   3.390690   4.606742   5.052639
    12  H    4.172985   3.412533   4.319818   5.606578   6.089324
    13  H    3.008487   2.725202   3.801937   4.812273   4.970106
    14  H    3.739288   2.820051   3.299184   4.461348   5.085644
    15  N    2.466064   1.461135   2.499125   3.780122   4.260573
    16  H    3.267445   2.049158   2.612995   3.986363   4.719659
    17  O    3.727640   4.231323   3.724113   2.444417   1.432158
    18  H    4.191495   4.708105   4.197262   2.931897   2.021428
                    6          7          8          9         10
     6  C    0.000000
     7  H    2.159194   0.000000
     8  H    3.877491   4.297465   0.000000
     9  H    3.400636   4.967839   2.491442   0.000000
    10  H    1.084248   2.496308   4.961627   4.288541   0.000000
    11  C    4.498458   3.268723   3.506808   5.438660   5.279185
    12  H    5.487254   4.023953   4.291718   6.412698   6.230390
    13  H    4.202351   2.796122   4.170987   5.730008   4.810303
    14  H    4.786252   3.989645   3.222529   5.140203   5.638360
    15  N    3.754492   2.663653   2.724705   4.661661   4.625886
    16  H    4.441791   3.582483   2.460467   4.711706   5.385223
    17  O    2.446869   4.603376   4.595774   2.658484   2.660377
    18  H    2.926395   5.025606   5.034484   3.048906   3.034745
                   11         12         13         14         15
    11  C    0.000000
    12  H    1.094187   0.000000
    13  H    1.092124   1.772872   0.000000
    14  H    1.101130   1.786695   1.777827   0.000000
    15  N    1.508009   2.132241   2.126518   2.192200   0.000000
    16  H    2.109189   2.439296   2.987974   2.537334   1.024588
    17  O    6.430053   7.484702   6.278384   6.394719   5.692011
    18  H    7.054112   8.071178   6.950113   7.096787   6.152172
                   16         17         18
    16  H    0.000000
    17  O    6.133717   0.000000
    18  H    6.521706   0.989890   0.000000
 Stoichiometry    C7H9NO
 Framework group  C1[X(C7H9NO)]
 Deg. of freedom    48
 Full point group                 C1      NOp   1
 Largest Abelian subgroup         C1      NOp   1
 Largest concise Abelian subgroup C1      NOp   1
                         Standard orientation:                         
 ---------------------------------------------------------------------
 Center     Atomic      Atomic             Coordinates (Angstroms)
 Number     Number       Type             X           Y           Z
 ---------------------------------------------------------------------
      1          6           0        0.249197    1.173485   -0.286766
      2          6           0        0.922879   -0.051091   -0.339602
      3          6           0        0.201065   -1.241716   -0.164625
      4          6           0       -1.183345   -1.208949    0.041681
      5          6           0       -1.843141    0.018428    0.087462
      6          6           0       -1.131321    1.209696   -0.064771
      7          1           0        0.805541    2.093774   -0.424065
      8          1           0        0.717466   -2.196381   -0.189519
      9          1           0       -1.745081   -2.125963    0.182212
     10          1           0       -1.656200    2.157121   -0.014955
     11          6           0        3.169085    0.143025    0.712943
     12          1           0        4.232737    0.178793    0.458755
     13          1           0        2.888559    1.101337    1.155302
     14          1           0        3.007331   -0.645373    1.464443
     15          7           0        2.368887   -0.059212   -0.549148
     16          1           0        2.644851   -0.919820   -1.031825
     17          8           0       -3.250231    0.058875    0.351163
     18          1           0       -3.782090    0.042720   -0.483551
 ---------------------------------------------------------------------
 Rotational constants (GHZ):           4.5180939           0.9419628           0.8314976
 Standard basis: 3-21+G (6D, 7F)
 There are   135 symmetry adapted cartesian basis functions of A   symmetry.
 There are   135 symmetry adapted basis functions of A   symmetry.
   135 basis functions,   198 primitive gaussians,   135 cartesian basis functions
    33 alpha electrons       33 beta electrons
       nuclear repulsion energy       417.5860797383 Hartrees.
 NAtoms=   18 NActive=   18 NUniq=   18 SFac= 1.00D+00 NAtFMM=   60 NAOKFM=F Big=F
 Integral buffers will be    131072 words long.
 Raffenetti 2 integral format.
 Two-electron integral symmetry is turned on.
 ------------------------------------------------------------------------------
 Polarizable Continuum Model (PCM)
 =================================
 Model                : PCM.
 Atomic radii         : UFF (Universal Force Field).
 Polarization charges : Total charges.
 Charge compensation  : None.
 Solution method      : On-the-fly selection.
 Cavity type          : Scaled VdW (van der Waals Surface) (Alpha=1.100).
 Cavity algorithm     : GePol (No added spheres)
                        Default sphere list used, NSphG=   18.
                        Lebedev-Laikov grids with approx.  5.0 points / Ang**2.
                        Smoothing algorithm: York/Karplus (Gamma=1.0000).
                        Polarization charges: spherical gaussians, with
                                              point-specific exponents (IZeta= 3).
                        Self-potential: point-specific (ISelfS= 7).
                        Self-field    : sphere-specific E.n sum rule (ISelfD= 2).
 1st derivatives      : Analytical E(r).r(x)/FMM algorithm (CHGder, D1EAlg=3).
                        Cavity 1st derivative terms included.
 Solvent              : Toluene, Eps=   2.374100 Eps(inf)=   2.238315
 ------------------------------------------------------------------------------
 Spheres list:
 ISph  on   Nord     Re0    Alpha      Xe            Ye            Ze
    1   C      1    1.9255  1.100      0.249197      1.173485     -0.286766
    2   C      2    1.9255  1.100      0.922879     -0.051091     -0.339602
    3   C      3    1.9255  1.100      0.201065     -1.241716     -0.164625
    4   C      4    1.9255  1.100     -1.183345     -1.208949      0.041681
    5   C      5    1.9255  1.100     -1.843141      0.018428      0.087462
    6   C      6    1.9255  1.100     -1.131321      1.209696     -0.064771
    7   H      7    1.4430  1.100      0.805541      2.093774     -0.424065
    8   H      8    1.4430  1.100      0.717466     -2.196381     -0.189519
    9   H      9    1.4430  1.100     -1.745081     -2.125963      0.182212
   10   H     10    1.4430  1.100     -1.656200      2.157121     -0.014955
   11   C     11    1.9255  1.100      3.169085      0.143025      0.712943
   12   H     12    1.4430  1.100      4.232737      0.178793      0.458755
   13   H     13    1.4430  1.100      2.888559      1.101337      1.155302
   14   H     14    1.4430  1.100      3.007331     -0.645373      1.464443
   15   N     15    1.8300  1.100      2.368887     -0.059212     -0.549148
   16   H     16    1.4430  1.100      2.644851     -0.919820     -1.031825
   17   O     17    1.7500  1.100     -3.250231      0.058875      0.351163
   18   H     18    1.4430  1.100     -3.782090      0.042720     -0.483551
 ------------------------------------------------------------------------------
 One-electron integrals computed using PRISM.
 NBasis=   135 RedAO= T EigKep=  4.12D-06  NBF=   135
 NBsUse=   135 1.00D-06 EigRej= -1.00D+00 NBFU=   135
 Initial guess from the checkpoint file:  "D:\Wu Group Data\Gaussian\Benzene amine.chk"
 B after Tr=     0.000000    0.000000    0.000000
         Rot=    0.999652    0.025766   -0.002940    0.004793 Ang=   3.02 deg.
 ExpMin= 4.38D-02 ExpMax= 3.22D+02 ExpMxC= 3.22D+02 IAcc=3 IRadAn=         5 AccDes= 0.00D+00
 Harris functional with IExCor=  402 and IRadAn=       5 diagonalized for initial guess.
 HarFok:  IExCor=  402 AccDes= 0.00D+00 IRadAn=         5 IDoV= 1 UseB2=F ITyADJ=14
 ICtDFT=  3500011 ScaDFX=  1.000000  1.000000  1.000000  1.000000
 FoFCou: FMM=F IPFlag=           0 FMFlag=      100000 FMFlg1=           0
         NFxFlg=           0 DoJE=T BraDBF=F KetDBF=T FulRan=T
         wScrn=  0.000000 ICntrl=       500 IOpCl=  0 I1Cent=   200000004 NGrid=           0
         NMat0=    1 NMatS0=      1 NMatT0=    0 NMatD0=    1 NMtDS0=    0 NMtDT0=    0
 Petite list used in FoFCou.
 Keep R1 ints in memory in canonical form, NReq=43717509.
 Requested convergence on RMS density matrix=1.00D-08 within 128 cycles.
 Requested convergence on MAX density matrix=1.00D-06.
 Requested convergence on             energy=1.00D-06.
 No special actions if energy rises.
 Inv3:  Mode=1 IEnd=     6858432.
 Iteration    1 A*A^-1 deviation from unit magnitude is 3.00D-15 for   1407.
 Iteration    1 A*A^-1 deviation from orthogonality  is 3.45D-15 for    712    525.
 Iteration    1 A^-1*A deviation from unit magnitude is 2.89D-15 for    537.
 Iteration    1 A^-1*A deviation from orthogonality  is 1.89D-15 for   1339   1262.
 Error on total polarization charges =  0.01043
 SCF Done:  E(RB3LYP) =  -399.969379656     A.U. after   13 cycles
            NFock= 13  Conv=0.41D-08     -V/T= 2.0096
 D1PCM: PCM CHGder 1st derivatives, ID1Alg=3 FixD1E=F DoIter=F DoCFld=F I1PDM=0.
 Calling FoFJK, ICntrl=      2127 FMM=F ISym2X=0 I1Cent= 0 IOpClX= 0 NMat=1 NMatS=1 NMatT=0.
 ***** Axes restored to original set *****
 -------------------------------------------------------------------
 Center     Atomic                   Forces (Hartrees/Bohr)
 Number     Number              X              Y              Z
 -------------------------------------------------------------------
      1        6          -0.002287355    0.002617482   -0.001914184
      2        6           0.006895919   -0.008520406   -0.001321934
      3        6          -0.001577372    0.001050158    0.001129261
      4        6           0.000705770   -0.000612965    0.000420911
      5        6          -0.000889312    0.000119389    0.001585681
      6        6          -0.000180498   -0.001149036   -0.000436300
      7        1           0.000095984   -0.000494866    0.000389566
      8        1           0.000492288   -0.000045680   -0.000343496
      9        1          -0.000240327    0.000028045    0.000107865
     10        1          -0.000203717    0.000426414    0.000117629
     11        6          -0.000950716   -0.001986686    0.002263486
     12        1          -0.000179915   -0.000292111    0.001455092
     13        1          -0.001383237    0.000017366    0.000232112
     14        1          -0.000136578    0.001410113    0.001312873
     15        7          -0.002333406    0.009993795   -0.002446152
     16        1           0.001520351   -0.002101822   -0.001351134
     17        8           0.001791043   -0.000403635   -0.003990349
     18        1          -0.001138922   -0.000055554    0.002789073
 -------------------------------------------------------------------
 Cartesian Forces:  Max     0.009993795 RMS     0.002417684

 GradGradGradGradGradGradGradGradGradGradGradGradGradGradGradGradGradGrad
 Berny optimization.
 Using GEDIIS/GDIIS optimizer.
 FormGI is forming the generalized inverse of G from B-inverse, IUseBI=4.
 Internal  Forces:  Max     0.007892114 RMS     0.001369555
 Search for a local minimum.
 Step number   2 out of a maximum of   92
 All quantities printed in internal units (Hartrees-Bohrs-Radians)
 Mixed Optimization -- RFO/linear search
 Update second derivatives using D2CorX and points    1    2
 DE= -6.86D-03 DEPred=-7.46D-03 R= 9.20D-01
 TightC=F SS=  1.41D+00  RLast= 2.85D-01 DXNew= 5.0454D-01 8.5474D-01
 Trust test= 9.20D-01 RLast= 2.85D-01 DXMaxT set to 5.05D-01
 ITU=  1  0
 Use linear search instead of GDIIS.
     Eigenvalues ---    0.00752   0.00766   0.01295   0.01673   0.01941
     Eigenvalues ---    0.02065   0.02070   0.02070   0.02070   0.02071
     Eigenvalues ---    0.02071   0.02074   0.02806   0.07069   0.07666
     Eigenvalues ---    0.12238   0.15844   0.15998   0.16000   0.16000
     Eigenvalues ---    0.16000   0.16000   0.16000   0.16723   0.22002
     Eigenvalues ---    0.22777   0.23169   0.23991   0.24879   0.24972
     Eigenvalues ---    0.33508   0.36223   0.37222   0.37230   0.37230
     Eigenvalues ---    0.37230   0.37230   0.37230   0.40315   0.41120
     Eigenvalues ---    0.41303   0.41580   0.45351   0.45388   0.45389
     Eigenvalues ---    0.45719   0.48148   0.54390
 RFO step:  Lambda=-1.48991613D-03 EMin= 7.52289567D-03
 Quartic linear search produced a step of  0.04247.
 Iteration  1 RMS(Cart)=  0.08750684 RMS(Int)=  0.00316197
 Iteration  2 RMS(Cart)=  0.00432483 RMS(Int)=  0.00013575
 Iteration  3 RMS(Cart)=  0.00000833 RMS(Int)=  0.00013562
 Iteration  4 RMS(Cart)=  0.00000000 RMS(Int)=  0.00013562
 Variable       Old X    -DE/DX   Delta X   Delta X   Delta X     New X
                                 (Linear)    (Quad)   (Total)
    R1        2.64307   0.00264  -0.00022   0.00603   0.00580   2.64887
    R2        2.64320  -0.00081  -0.00021  -0.00192  -0.00213   2.64107
    R3        2.04868   0.00028   0.00113   0.00127   0.00240   2.05108
    R4        2.65183   0.00037   0.00015   0.00096   0.00110   2.65293
    R5        2.76115  -0.00789  -0.00071  -0.02316  -0.02387   2.73727
    R6        2.64577  -0.00043  -0.00011  -0.00106  -0.00116   2.64461
    R7        2.05162   0.00040   0.00126   0.00168   0.00294   2.05455
    R8        2.63471   0.00040  -0.00058   0.00056  -0.00001   2.63471
    R9        2.04947  -0.00004   0.00117   0.00039   0.00156   2.05103
   R10        2.63817  -0.00016  -0.00043  -0.00061  -0.00102   2.63715
   R11        2.70639  -0.00079   0.00017  -0.00191  -0.00174   2.70465
   R12        2.04893   0.00016   0.00114   0.00095   0.00210   2.05103
   R13        2.06771   0.00015   0.00194   0.00127   0.00321   2.07093
   R14        2.06382   0.00095   0.00178   0.00341   0.00519   2.06901
   R15        2.08083   0.00047   0.00250   0.00240   0.00490   2.08573
   R16        2.84972  -0.00560   0.00305  -0.01486  -0.01181   2.83792
   R17        1.93619   0.00022   0.00197   0.00135   0.00332   1.93951
   R18        1.87062   0.00298   0.00240   0.00661   0.00901   1.87963
    A1        2.09909   0.00072   0.00020   0.00369   0.00388   2.10297
    A2        2.08434  -0.00072  -0.00043  -0.00432  -0.00477   2.07957
    A3        2.09974   0.00000   0.00023   0.00059   0.00079   2.10053
    A4        2.08333  -0.00104  -0.00047  -0.00418  -0.00468   2.07866
    A5        2.07941  -0.00028  -0.00064  -0.00151  -0.00217   2.07723
    A6        2.12024   0.00133   0.00110   0.00593   0.00701   2.12725
    A7        2.10265   0.00013   0.00035   0.00080   0.00116   2.10381
    A8        2.09272  -0.00023  -0.00007  -0.00138  -0.00145   2.09127
    A9        2.08781   0.00009  -0.00028   0.00058   0.00030   2.08811
   A10        2.08676   0.00029  -0.00032   0.00090   0.00059   2.08735
   A11        2.10768   0.00007   0.00056   0.00109   0.00162   2.10930
   A12        2.08861  -0.00037  -0.00025  -0.00213  -0.00241   2.08620
   A13        2.10170   0.00039   0.00031   0.00114   0.00138   2.10308
   A14        2.08962  -0.00007  -0.00020  -0.00052  -0.00085   2.08877
   A15        2.09086  -0.00034  -0.00015  -0.00161  -0.00189   2.08897
   A16        2.09261  -0.00050  -0.00008  -0.00246  -0.00250   2.09012
   A17        2.10332   0.00072   0.00038   0.00438   0.00474   2.10806
   A18        2.08724  -0.00022  -0.00030  -0.00193  -0.00225   2.08499
   A19        1.89136   0.00122  -0.00082   0.00844   0.00758   1.89894
   A20        1.90154   0.00186  -0.00039   0.01133   0.01088   1.91243
   A21        1.90264  -0.00145  -0.00034  -0.00930  -0.00970   1.89294
   A22        1.89030   0.00143  -0.00086   0.00838   0.00748   1.89778
   A23        1.89692  -0.00076  -0.00058  -0.00495  -0.00557   1.89135
   A24        1.97928  -0.00214   0.00292  -0.01290  -0.01004   1.96924
   A25        1.98708   0.00138   0.00325   0.01378   0.01653   2.00362
   A26        1.91642   0.00160   0.00025   0.02883   0.02854   1.94496
   A27        1.94335  -0.00164   0.00139   0.00037   0.00097   1.94432
   A28        1.95213  -0.00086   0.00174  -0.00476  -0.00302   1.94912
    D1       -0.00265   0.00000  -0.00011   0.00080   0.00068  -0.00197
    D2       -3.12277  -0.00025   0.00080  -0.01166  -0.01083  -3.13360
    D3       -3.13918   0.00023   0.00010   0.01145   0.01153  -3.12765
    D4        0.02388  -0.00001   0.00101  -0.00101   0.00002   0.02390
    D5       -0.01456  -0.00007  -0.00062  -0.00446  -0.00507  -0.01963
    D6        3.13278  -0.00005  -0.00037  -0.00317  -0.00353   3.12926
    D7        3.12193  -0.00031  -0.00084  -0.01522  -0.01606   3.10586
    D8       -0.01392  -0.00028  -0.00059  -0.01392  -0.01452  -0.02843
    D9        0.01613   0.00013   0.00068   0.00570   0.00639   0.02251
   D10       -3.12604   0.00015   0.00066   0.00679   0.00746  -3.11858
   D11        3.13573   0.00036  -0.00025   0.01836   0.01812  -3.12934
   D12       -0.00643   0.00038  -0.00027   0.01945   0.01919   0.01275
   D13        1.45744  -0.00120  -0.00481  -0.15391  -0.15898   1.29846
   D14       -2.63352  -0.00106  -0.00066  -0.11984  -0.12021  -2.75373
   D15       -1.66221  -0.00143  -0.00388  -0.16650  -0.17067  -1.83288
   D16        0.53001  -0.00128   0.00027  -0.13244  -0.13190   0.39811
   D17       -0.01229  -0.00019  -0.00052  -0.00849  -0.00901  -0.02130
   D18       -3.13641   0.00002   0.00022   0.00141   0.00165  -3.13476
   D19        3.12987  -0.00021  -0.00050  -0.00958  -0.01008   3.11980
   D20        0.00575   0.00000   0.00024   0.00032   0.00058   0.00633
   D21       -0.00511   0.00011  -0.00022   0.00472   0.00449  -0.00062
   D22       -3.09842   0.00057   0.00183   0.02851   0.03035  -3.06808
   D23        3.11920  -0.00010  -0.00095  -0.00504  -0.00599   3.11321
   D24        0.02589   0.00037   0.00110   0.01875   0.01987   0.04576
   D25        0.01850   0.00002   0.00079   0.00169   0.00247   0.02098
   D26       -3.12879   0.00000   0.00054   0.00042   0.00097  -3.12781
   D27        3.11178  -0.00044  -0.00127  -0.02209  -0.02336   3.08842
   D28       -0.03551  -0.00046  -0.00151  -0.02336  -0.02486  -0.06037
   D29       -1.60513  -0.00028  -0.00106  -0.01589  -0.01692  -1.62205
   D30        1.58444   0.00016   0.00098   0.00768   0.00863   1.59307
   D31       -3.08732   0.00072   0.00231   0.00855   0.01087  -3.07645
   D32        1.01797  -0.00119  -0.00124  -0.04131  -0.04255   0.97542
   D33       -1.02908   0.00093   0.00077   0.01060   0.01138  -1.01770
   D34        3.07621  -0.00098  -0.00278  -0.03926  -0.04204   3.03417
   D35        1.07420   0.00082   0.00115   0.00939   0.01054   1.08474
   D36       -1.10369  -0.00109  -0.00240  -0.04046  -0.04289  -1.14658
         Item               Value     Threshold  Converged?
 Maximum Force            0.007892     0.000450     NO 
 RMS     Force            0.001370     0.000300     NO 
 Maximum Displacement     0.234608     0.001800     NO 
 RMS     Displacement     0.087869     0.001200     NO 
 Predicted change in Energy=-7.946751D-04
 GradGradGradGradGradGradGradGradGradGradGradGradGradGradGradGradGradGrad

                          Input orientation:                          
 ---------------------------------------------------------------------
 Center     Atomic      Atomic             Coordinates (Angstroms)
 Number     Number       Type             X           Y           Z
 ---------------------------------------------------------------------
      1          6           0       -2.430598    1.993089   -0.430164
      2          6           0       -1.077479    2.038240   -0.067051
      3          6           0       -0.533183    3.249059    0.389579
      4          6           0       -1.335339    4.389763    0.507238
      5          6           0       -2.679730    4.326714    0.143222
      6          6           0       -3.228392    3.136817   -0.336972
      7          1           0       -2.855523    1.054261   -0.770894
      8          1           0        0.520043    3.302783    0.653929
      9          1           0       -0.918461    5.330069    0.853705
     10          1           0       -4.273765    3.110075   -0.627624
     11          6           0        0.096412    0.465093   -1.591986
     12          1           0        0.637994   -0.487289   -1.566962
     13          1           0       -0.823825    0.332631   -2.170225
     14          1           0        0.718423    1.231310   -2.086167
     15          7           0       -0.277667    0.836421   -0.185762
     16          1           0        0.547134    0.872979    0.423950
     17          8           0       -3.479352    5.513272    0.176744
     18          1           0       -3.950942    5.614036    1.046684
 ---------------------------------------------------------------------
                    Distance matrix (angstroms):
                    1          2          3          4          5
     1  C    0.000000
     2  C    1.401720   0.000000
     3  C    2.418599   1.403870   0.000000
     4  C    2.796848   2.434330   1.399465   0.000000
     5  C    2.415914   2.801523   2.414476   1.394227   0.000000
     6  C    1.397596   2.430258   2.793675   2.422026   1.395518
     7  H    1.085383   2.150593   3.399573   3.882030   3.402273
     8  H    3.405413   2.161240   1.087223   2.155339   3.398206
     9  H    3.882049   3.421873   2.166669   1.085357   2.147923
    10  H    2.164236   3.417502   3.878914   3.399980   2.148340
    11  C    3.173387   2.485607   3.474688   4.675435   5.062611
    12  H    4.106196   3.401599   4.377214   5.655262   6.091522
    13  H    2.892517   2.719703   3.891352   4.887819   4.974848
    14  H    3.638542   2.820147   3.430327   4.573785   5.108731
    15  N    2.456161   1.448503   2.493417   3.771626   4.249739
    16  H    3.294092   2.058709   2.610368   3.989788   4.734949
    17  O    3.722890   4.231344   3.721810   2.443008   1.431237
    18  H    4.195687   4.720542   4.207848   2.937895   2.022233
                    6          7          8          9         10
     6  C    0.000000
     7  H    2.159713   0.000000
     8  H    3.880746   4.298886   0.000000
     9  H    3.400565   4.967299   2.493811   0.000000
    10  H    1.085357   2.501662   4.965895   4.287280   0.000000
    11  C    4.446065   3.120134   3.643636   5.538896   5.198498
    12  H    5.440217   3.900610   4.394418   6.490287   6.160257
    13  H    4.123860   2.570345   4.313193   5.841874   4.689979
    14  H    4.718897   3.812398   3.440709   5.303023   5.529833
    15  N    3.744525   2.652391   2.724768   4.656606   4.618826
    16  H    4.467500   3.610899   2.440813   4.711508   5.417700
    17  O    2.444263   4.601082   4.594467   2.655183   2.655834
    18  H    2.928002   5.029422   5.048352   3.051855   3.029413
                   11         12         13         14         15
    11  C    0.000000
    12  H    1.095887   0.000000
    13  H    1.094871   1.781323   0.000000
    14  H    1.103722   1.797116   1.786958   0.000000
    15  N    1.501761   2.120933   2.119006   2.181667   0.000000
    16  H    2.105593   2.412948   2.983497   2.541344   1.026344
    17  O    6.434175   7.483300   6.276872   6.409155   5.679360
    18  H    7.060827   8.069427   6.929691   7.129237   6.151218
                   16         17         18
    16  H    0.000000
    17  O    6.148659   0.000000
    18  H    6.564915   0.994660   0.000000
 Stoichiometry    C7H9NO
 Framework group  C1[X(C7H9NO)]
 Deg. of freedom    48
 Full point group                 C1      NOp   1
 Largest Abelian subgroup         C1      NOp   1
 Largest concise Abelian subgroup C1      NOp   1
                         Standard orientation:                         
 ---------------------------------------------------------------------
 Center     Atomic      Atomic             Coordinates (Angstroms)
 Number     Number       Type             X           Y           Z
 ---------------------------------------------------------------------
      1          6           0        0.282405    1.123352   -0.306217
      2          6           0        0.925477   -0.122128   -0.313815
      3          6           0        0.164640   -1.284557   -0.111982
      4          6           0       -1.221016   -1.205274    0.067396
      5          6           0       -1.844723    0.041661    0.070495
      6          6           0       -1.097756    1.207610   -0.102924
      7          1           0        0.867736    2.021625   -0.475184
      8          1           0        0.654459   -2.255027   -0.094160
      9          1           0       -1.813323   -2.100093    0.230097
     10          1           0       -1.598802    2.170223   -0.084778
     11          6           0        3.178141    0.261284    0.664318
     12          1           0        4.235590    0.247867    0.376934
     13          1           0        2.895713    1.287035    0.922800
     14          1           0        3.027124   -0.381553    1.548713
     15          7           0        2.358747   -0.171611   -0.517411
     16          1           0        2.656973   -1.090685   -0.863454
     17          8           0       -3.246739    0.132040    0.343668
     18          1           0       -3.785790    0.113880   -0.492060
 ---------------------------------------------------------------------
 Rotational constants (GHZ):           4.5397344           0.9449725           0.8288901
 Standard basis: 3-21+G (6D, 7F)
 There are   135 symmetry adapted cartesian basis functions of A   symmetry.
 There are   135 symmetry adapted basis functions of A   symmetry.
   135 basis functions,   198 primitive gaussians,   135 cartesian basis functions
    33 alpha electrons       33 beta electrons
       nuclear repulsion energy       417.8777667620 Hartrees.
 NAtoms=   18 NActive=   18 NUniq=   18 SFac= 1.00D+00 NAtFMM=   60 NAOKFM=F Big=F
 Integral buffers will be    131072 words long.
 Raffenetti 2 integral format.
 Two-electron integral symmetry is turned on.
 ------------------------------------------------------------------------------
 Polarizable Continuum Model (PCM)
 =================================
 Model                : PCM.
 Atomic radii         : UFF (Universal Force Field).
 Polarization charges : Total charges.
 Charge compensation  : None.
 Solution method      : On-the-fly selection.
 Cavity type          : Scaled VdW (van der Waals Surface) (Alpha=1.100).
 Cavity algorithm     : GePol (No added spheres)
                        Default sphere list used, NSphG=   18.
                        Lebedev-Laikov grids with approx.  5.0 points / Ang**2.
                        Smoothing algorithm: York/Karplus (Gamma=1.0000).
                        Polarization charges: spherical gaussians, with
                                              point-specific exponents (IZeta= 3).
                        Self-potential: point-specific (ISelfS= 7).
                        Self-field    : sphere-specific E.n sum rule (ISelfD= 2).
 1st derivatives      : Analytical E(r).r(x)/FMM algorithm (CHGder, D1EAlg=3).
                        Cavity 1st derivative terms included.
 Solvent              : Toluene, Eps=   2.374100 Eps(inf)=   2.238315
 ------------------------------------------------------------------------------
 Spheres list:
 ISph  on   Nord     Re0    Alpha      Xe            Ye            Ze
    1   C      1    1.9255  1.100      0.282405      1.123352     -0.306217
    2   C      2    1.9255  1.100      0.925477     -0.122128     -0.313815
    3   C      3    1.9255  1.100      0.164640     -1.284557     -0.111982
    4   C      4    1.9255  1.100     -1.221016     -1.205274      0.067396
    5   C      5    1.9255  1.100     -1.844723      0.041661      0.070495
    6   C      6    1.9255  1.100     -1.097756      1.207610     -0.102924
    7   H      7    1.4430  1.100      0.867736      2.021625     -0.475184
    8   H      8    1.4430  1.100      0.654459     -2.255027     -0.094160
    9   H      9    1.4430  1.100     -1.813323     -2.100093      0.230097
   10   H     10    1.4430  1.100     -1.598802      2.170223     -0.084778
   11   C     11    1.9255  1.100      3.178141      0.261284      0.664318
   12   H     12    1.4430  1.100      4.235590      0.247867      0.376934
   13   H     13    1.4430  1.100      2.895713      1.287035      0.922800
   14   H     14    1.4430  1.100      3.027124     -0.381553      1.548713
   15   N     15    1.8300  1.100      2.358747     -0.171611     -0.517411
   16   H     16    1.4430  1.100      2.656973     -1.090685     -0.863454
   17   O     17    1.7500  1.100     -3.246739      0.132040      0.343668
   18   H     18    1.4430  1.100     -3.785790      0.113880     -0.492060
 ------------------------------------------------------------------------------
 One-electron integrals computed using PRISM.
 NBasis=   135 RedAO= T EigKep=  4.08D-06  NBF=   135
 NBsUse=   135 1.00D-06 EigRej= -1.00D+00 NBFU=   135
 Initial guess from the checkpoint file:  "D:\Wu Group Data\Gaussian\Benzene amine.chk"
 B after Tr=     0.000000    0.000000    0.000000
         Rot=    0.999485    0.031785   -0.000046    0.004515 Ang=   3.68 deg.
 ExpMin= 4.38D-02 ExpMax= 3.22D+02 ExpMxC= 3.22D+02 IAcc=3 IRadAn=         5 AccDes= 0.00D+00
 Harris functional with IExCor=  402 and IRadAn=       5 diagonalized for initial guess.
 HarFok:  IExCor=  402 AccDes= 0.00D+00 IRadAn=         5 IDoV= 1 UseB2=F ITyADJ=14
 ICtDFT=  3500011 ScaDFX=  1.000000  1.000000  1.000000  1.000000
 FoFCou: FMM=F IPFlag=           0 FMFlag=      100000 FMFlg1=           0
         NFxFlg=           0 DoJE=T BraDBF=F KetDBF=T FulRan=T
         wScrn=  0.000000 ICntrl=       500 IOpCl=  0 I1Cent=   200000004 NGrid=           0
         NMat0=    1 NMatS0=      1 NMatT0=    0 NMatD0=    1 NMtDS0=    0 NMtDT0=    0
 Petite list used in FoFCou.
 Keep R1 ints in memory in canonical form, NReq=43717528.
 Requested convergence on RMS density matrix=1.00D-08 within 128 cycles.
 Requested convergence on MAX density matrix=1.00D-06.
 Requested convergence on             energy=1.00D-06.
 No special actions if energy rises.
 Inv3:  Mode=1 IEnd=     6867507.
 Iteration    1 A*A^-1 deviation from unit magnitude is 4.22D-15 for   1289.
 Iteration    1 A*A^-1 deviation from orthogonality  is 2.08D-15 for    920    627.
 Iteration    1 A^-1*A deviation from unit magnitude is 4.44D-15 for   1289.
 Iteration    1 A^-1*A deviation from orthogonality  is 1.61D-15 for   1461   1421.
 Error on total polarization charges =  0.01058
 SCF Done:  E(RB3LYP) =  -399.970592533     A.U. after   14 cycles
            NFock= 14  Conv=0.43D-08     -V/T= 2.0097
 D1PCM: PCM CHGder 1st derivatives, ID1Alg=3 FixD1E=F DoIter=F DoCFld=F I1PDM=0.
 Calling FoFJK, ICntrl=      2127 FMM=F ISym2X=0 I1Cent= 0 IOpClX= 0 NMat=1 NMatS=1 NMatT=0.
 ***** Axes restored to original set *****
 -------------------------------------------------------------------
 Center     Atomic                   Forces (Hartrees/Bohr)
 Number     Number              X              Y              Z
 -------------------------------------------------------------------
      1        6          -0.002462266    0.001062796   -0.001078794
      2        6           0.004584744   -0.006557916   -0.000369931
      3        6           0.000279378    0.000211182    0.002186138
      4        6           0.000089110    0.000031105   -0.000201750
      5        6           0.000363576    0.000974347   -0.000171846
      6        6          -0.000100851   -0.001637915   -0.000422297
      7        1          -0.000134815    0.000508020    0.000175166
      8        1          -0.000505349   -0.000055356   -0.000263276
      9        1          -0.000187089   -0.000601080   -0.000109562
     10        1           0.000593059   -0.000008852    0.000138503
     11        6          -0.001506656   -0.002299714    0.001299517
     12        1          -0.000576059    0.001139052   -0.000279091
     13        1           0.001463651   -0.000198583    0.000098230
     14        1          -0.000857986   -0.000724729    0.000866467
     15        7           0.000935831    0.007956833   -0.000302299
     16        1          -0.001559673   -0.000350034   -0.001898012
     17        8          -0.000805085    0.000744696    0.001108871
     18        1           0.000386480   -0.000193853   -0.000776034
 -------------------------------------------------------------------
 Cartesian Forces:  Max     0.007956833 RMS     0.001783060

 GradGradGradGradGradGradGradGradGradGradGradGradGradGradGradGradGradGrad
 Berny optimization.
 Using GEDIIS/GDIIS optimizer.
 FormGI is forming the generalized inverse of G from B-inverse, IUseBI=4.
 Internal  Forces:  Max     0.005721691 RMS     0.001031406
 Search for a local minimum.
 Step number   3 out of a maximum of   92
 All quantities printed in internal units (Hartrees-Bohrs-Radians)
 Mixed Optimization -- RFO/linear search
 Update second derivatives using D2CorX and points    1    2    3
 DE= -1.21D-03 DEPred=-7.95D-04 R= 1.53D+00
 TightC=F SS=  1.41D+00  RLast= 3.15D-01 DXNew= 8.4853D-01 9.4545D-01
 Trust test= 1.53D+00 RLast= 3.15D-01 DXMaxT set to 8.49D-01
 ITU=  1  1  0
 Use linear search instead of GDIIS.
     Eigenvalues ---    0.00183   0.00766   0.01294   0.01653   0.02000
     Eigenvalues ---    0.02063   0.02070   0.02070   0.02071   0.02071
     Eigenvalues ---    0.02074   0.02274   0.02408   0.07186   0.07757
     Eigenvalues ---    0.12866   0.15890   0.15995   0.15998   0.16000
[...]
 ! D13   D(1,2,15,11)            0.0008         -DE/DX =    0.0                 !
 ! D14   D(1,2,15,16)          179.9841         -DE/DX =    0.0                 !
 ! D15   D(3,2,15,11)         -179.9981         -DE/DX =    0.0                 !
 ! D16   D(3,2,15,16)           -0.0149         -DE/DX =    0.0                 !
 ! D17   D(2,3,4,5)              0.0031         -DE/DX =    0.0                 !
 ! D18   D(2,3,4,9)           -180.0051         -DE/DX =    0.0                 !
 ! D19   D(8,3,4,5)           -179.9926         -DE/DX =    0.0                 !
 ! D20   D(8,3,4,9)             -0.0008         -DE/DX =    0.0                 !
 ! D21   D(3,4,5,6)             -0.0068         -DE/DX =    0.0                 !
 ! D22   D(3,4,5,17)          -180.0016         -DE/DX =    0.0                 !
 ! D23   D(9,4,5,6)           -179.9987         -DE/DX =    0.0                 !
 ! D24   D(9,4,5,17)             0.0064         -DE/DX =    0.0                 !
 ! D25   D(4,5,6,1)              0.006          -DE/DX =    0.0                 !
 ! D26   D(4,5,6,10)           179.9999         -DE/DX =    0.0                 !
 ! D27   D(17,5,6,1)           180.0005         -DE/DX =    0.0                 !
 ! D28   D(17,5,6,10)           -0.0056         -DE/DX =    0.0                 !
 ! D29   D(4,5,17,18)          180.0012         -DE/DX =    0.0                 !
 ! D30   D(6,5,17,18)            0.0065         -DE/DX =    0.0                 !
 ! D31   D(12,11,15,2)        -179.9735         -DE/DX =    0.0                 !
 ! D32   D(12,11,15,16)          0.0432         -DE/DX =    0.0                 !
 ! D33   D(13,11,15,2)         -60.6577         -DE/DX =    0.0                 !
 ! D34   D(13,11,15,16)        119.3591         -DE/DX =    0.0                 !
 ! D35   D(14,11,15,2)          60.7047         -DE/DX =    0.0                 !
 ! D36   D(14,11,15,16)       -119.2785         -DE/DX =    0.0                 !
 --------------------------------------------------------------------------------
 GradGradGradGradGradGradGradGradGradGradGradGradGradGradGradGradGradGrad

                          Input orientation:                          
 ---------------------------------------------------------------------
 Center     Atomic      Atomic             Coordinates (Angstroms)
 Number     Number       Type             X           Y           Z
 ---------------------------------------------------------------------
      1          6           0       -2.132358    2.276896   -0.790109
      2          6           0       -0.822659    2.289000   -0.269422
      3          6           0       -0.458378    3.364981    0.575916
      4          6           0       -1.361515    4.377448    0.883583
      5          6           0       -2.655859    4.347267    0.357220
      6          6           0       -3.037674    3.299713   -0.476516
      7          1           0       -2.453729    1.472648   -1.441174
      8          1           0        0.544622    3.400812    0.992080
      9          1           0       -1.073512    5.197332    1.531906
     10          1           0       -4.041698    3.266506   -0.891213
     11          6           0       -0.206302    0.142705   -1.429905
     12          1           0        0.685105   -0.487505   -1.491888
     13          1           0       -1.032519   -0.461334   -1.026601
     14          1           0       -0.475936    0.465623   -2.446366
     15          7           0        0.095541    1.286331   -0.564782
     16          1           0        1.021370    1.351318   -0.160163
     17          8           0       -3.523577    5.413479    0.713892
     18          1           0       -4.415171    5.306103    0.294788
 ---------------------------------------------------------------------
                    Distance matrix (angstroms):
                    1          2          3          4          5
     1  C    0.000000
     2  C    1.409459   0.000000
     3  C    2.419125   1.415991   0.000000
     4  C    2.794237   2.445689   1.391188   0.000000
     5  C    2.424222   2.826617   2.416949   1.397604   0.000000
     6  C    1.401460   2.443505   2.786511   2.412652   1.392217
     7  H    1.083503   2.167907   3.410425   3.877536   3.396838
     8  H    3.406700   2.167249   1.086501   2.144515   3.397338
     9  H    3.878383   3.430175   2.156344   1.084195   2.146234
    10  H    2.152934   3.421162   3.873287   3.401099   2.155732
    11  C    2.945132   2.516586   3.803935   4.961833   5.183869
    12  H    4.009053   3.387737   4.519404   5.787856   6.160866
    13  H    2.960317   2.860367   4.187885   5.212566   5.260498
    14  H    2.961019   2.860770   4.188170   5.212981   5.261114
    15  N    2.448576   1.391286   2.434914   3.711573   4.217775
    16  H    3.346570   2.071625   2.605053   3.990614   4.771311
    17  O    3.746420   4.245495   3.689286   2.403470   1.420196
    18  H    3.945165   4.725185   4.416242   3.245596   2.004604
                    6          7          8          9         10
     6  C    0.000000
     7  H    2.147026   0.000000
     8  H    3.872963   4.316091   0.000000
     9  H    3.390081   4.961600   2.477349   0.000000
    10  H    1.086803   2.458053   4.959754   4.290655   0.000000
    11  C    4.346530   2.611476   4.128578   5.922300   4.975800
    12  H    5.406763   3.700953   4.616150   6.674836   6.065977
    13  H    4.297524   2.435569   4.634502   6.210325   4.792731
    14  H    4.298241   2.436427   4.634628   6.210702   4.793548
    15  N    3.725390   2.702138   2.663930   4.588978   4.598303
    16  H    4.513553   3.705674   2.399036   4.695046   5.462329
    17  O    2.474102   4.617254   4.547358   2.592042   2.730258
    18  H    2.553039   4.642864   5.358721   3.564964   2.388731
                   11         12         13         14         15
    11  C    0.000000
    12  H    1.093441   0.000000
    13  H    1.100069   1.779722   0.000000
    14  H    1.100078   1.779746   1.784591   0.000000
    15  N    1.465410   2.086529   2.130757   2.130845   0.000000
    16  H    2.140133   2.295177   2.873131   2.872822   1.012472
    17  O    6.586444   7.576284   6.614235   6.614879   5.636167
    18  H    6.881121   7.922810   6.815550   6.816285   6.102782
                   16         17         18
    16  H    0.000000
    17  O    6.158057   0.000000
    18  H    6.738195   0.991018   0.000000
 Stoichiometry    C7H9NO
 Framework group  C1[X(C7H9NO)]
 Deg. of freedom    48
 Full point group                 C1      NOp   1
 Largest Abelian subgroup         C1      NOp   1
 Largest concise Abelian subgroup C1      NOp   1
                         Standard orientation:                         
 ---------------------------------------------------------------------
 Center     Atomic      Atomic             Coordinates (Angstroms)
 Number     Number       Type             X           Y           Z
 ---------------------------------------------------------------------
      1          6           0        0.382123    1.001961    0.000034
      2          6           0        0.926524   -0.298117   -0.000003
      3          6           0        0.025922   -1.390796    0.000014
      4          6           0       -1.350710   -1.190082    0.000038
      5          6           0       -1.870896    0.107109   -0.000019
      6          6           0       -1.005592    1.197759    0.000043
      7          1           0        1.034432    1.867103    0.000018
      8          1           0        0.416768   -2.404564   -0.000063
      9          1           0       -2.032562   -2.033028   -0.000032
     10          1           0       -1.399493    2.210667   -0.000003
     11          6           0        3.293426    0.556854   -0.000014
     12          1           0        4.289970    0.106840   -0.000527
     13          1           0        3.198308    1.193480   -0.892097
     14          1           0        3.198974    1.192998    0.892494
     15          7           0        2.299942   -0.520372   -0.000035
     16          1           0        2.629526   -1.477699    0.000187
     17          8           0       -3.285210    0.236236   -0.000026
     18          1           0       -3.558616    1.188794   -0.000086
 ---------------------------------------------------------------------
 Rotational constants (GHZ):           4.7864596           0.9492858           0.7961814

 **********************************************************************

            Population analysis using the SCF Density.

 **********************************************************************

 Orbital symmetries:
       Occupied  (A) (A) (A) (A) (A) (A) (A) (A) (A) (A) (A) (A)
                 (A) (A) (A) (A) (A) (A) (A) (A) (A) (A) (A) (A)
                 (A) (A) (A) (A) (A) (A) (A) (A) (A)
       Virtual   (A) (A) (A) (A) (A) (A) (A) (A) (A) (A) (A) (A)
                 (A) (A) (A) (A) (A) (A) (A) (A) (A) (A) (A) (A)
                 (A) (A) (A) (A) (A) (A) (A) (A) (A) (A) (A) (A)
                 (A) (A) (A) (A) (A) (A) (A) (A) (A) (A) (A) (A)
                 (A) (A) (A) (A) (A) (A) (A) (A) (A) (A) (A) (A)
                 (A) (A) (A) (A) (A) (A) (A) (A) (A) (A) (A) (A)
                 (A) (A) (A) (A) (A) (A) (A) (A) (A) (A) (A) (A)
                 (A) (A) (A) (A) (A) (A) (A) (A) (A) (A) (A) (A)
                 (A) (A) (A) (A) (A) (A)
 The electronic state is 1-A.
 Alpha  occ. eigenvalues --  -19.08950 -14.27803 -10.19128 -10.17891 -10.16293
 Alpha  occ. eigenvalues --  -10.14059 -10.13669 -10.13577 -10.13476  -1.05387
 Alpha  occ. eigenvalues --   -0.93964  -0.85497  -0.76134  -0.75079  -0.69026
 Alpha  occ. eigenvalues --   -0.63853  -0.60191  -0.55247  -0.54672  -0.49237
 Alpha  occ. eigenvalues --   -0.45995  -0.45518  -0.44737  -0.43620  -0.41336
 Alpha  occ. eigenvalues --   -0.40749  -0.39820  -0.37584  -0.35591  -0.34854
 Alpha  occ. eigenvalues --   -0.28227  -0.26313  -0.19135
 Alpha virt. eigenvalues --   -0.01552   0.00180   0.00501   0.01460   0.01701
 Alpha virt. eigenvalues --    0.02793   0.04063   0.05074   0.05374   0.06586
 Alpha virt. eigenvalues --    0.08025   0.08200   0.08988   0.09189   0.10796
 Alpha virt. eigenvalues --    0.11245   0.12673   0.13357   0.13951   0.14638
 Alpha virt. eigenvalues --    0.14670   0.15488   0.15748   0.15972   0.17290
 Alpha virt. eigenvalues --    0.18543   0.18713   0.19871   0.21045   0.21466
 Alpha virt. eigenvalues --    0.21777   0.22326   0.23103   0.23563   0.23822
 Alpha virt. eigenvalues --    0.24545   0.25962   0.26059   0.26651   0.27331
 Alpha virt. eigenvalues --    0.28539   0.29141   0.30000   0.30514   0.30790
 Alpha virt. eigenvalues --    0.32314   0.33452   0.36049   0.37099   0.38083
 Alpha virt. eigenvalues --    0.39366   0.41000   0.42588   0.45259   0.46614
 Alpha virt. eigenvalues --    0.60106   0.64983   0.80259   0.80772   0.81222
 Alpha virt. eigenvalues --    0.82347   0.85408   0.87380   0.87839   0.88733
 Alpha virt. eigenvalues --    0.89771   0.90390   0.91236   0.94688   0.97863
 Alpha virt. eigenvalues --    0.99720   1.05808   1.08768   1.09181   1.12200
 Alpha virt. eigenvalues --    1.15094   1.16825   1.18839   1.21836   1.25694
 Alpha virt. eigenvalues --    1.29802   1.31010   1.33110   1.34598   1.40743
 Alpha virt. eigenvalues --    1.42826   1.51496   1.53129   1.54926   1.68791
 Alpha virt. eigenvalues --    1.68870   1.74546   1.78673   1.82234   1.88643
 Alpha virt. eigenvalues --    1.91378   1.99721   2.01514   2.14778   2.44364
 Alpha virt. eigenvalues --    2.86582   3.35087
          Condensed to atoms (all electrons):
               1          2          3          4          5          6
     1  C   23.440879  -6.712385  -7.559757  -2.603448   1.355379  -5.942378
     2  C   -6.712385  15.393055  -2.954603   2.405366  -2.640183   2.283352
     3  C   -7.559757  -2.954603  24.236691  -5.819751   4.999803  -1.860318
     4  C   -2.603448   2.405366  -5.819751  12.408499  -4.999416   3.129983
     5  C    1.355379  -2.640183   4.999803  -4.999416  12.441651  -3.612756
     6  C   -5.942378   2.283352  -1.860318   3.129983  -3.612756  11.536222
     7  H    0.247962  -0.046295  -0.078037   0.024250   0.022130   0.168346
     8  H   -0.043961   0.012090   0.303795   0.058223  -0.007306  -0.006008
     9  H    0.006170  -0.008856   0.004433   0.339371   0.036995  -0.046907
    10  H    0.157704   0.021481   0.002367  -0.068848  -0.080487   0.293687
    11  C    0.699530  -0.800137  -1.297039   0.212206  -0.243271   0.207067
    12  H   -0.007239   0.023003   0.002758  -0.000749   0.000278   0.008103
    13  H   -0.016991  -0.000788   0.016947   0.000952   0.000579   0.000511
    14  H   -0.017204  -0.000605   0.017109   0.000942   0.000591   0.000441
    15  N    0.617656  -0.487886  -1.012562   0.233432  -0.189246  -0.017232
    16  H   -0.042987  -0.112511   0.094630   0.016824   0.000022  -0.000322
    17  O    0.088927  -0.018062   0.134485  -0.114009   0.058745  -0.403931
    18  H   -0.049861   0.028247  -0.045464   0.110210  -0.183160   0.144620
               7          8          9         10         11         12
     1  C    0.247962  -0.043961   0.006170   0.157704   0.699530  -0.007239
     2  C   -0.046295   0.012090  -0.008856   0.021481  -0.800137   0.023003
     3  C   -0.078037   0.303795   0.004433   0.002367  -1.297039   0.002758
     4  C    0.024250   0.058223   0.339371  -0.068848   0.212206  -0.000749
     5  C    0.022130  -0.007306   0.036995  -0.080487  -0.243271   0.000278
     6  C    0.168346  -0.006008  -0.046907   0.293687   0.207067   0.008103
     7  H    0.439113  -0.000025   0.000000  -0.003266  -0.001794   0.000109
     8  H   -0.000025   0.442696  -0.003255   0.000001   0.005503   0.000001
     9  H    0.000000  -0.003255   0.420177  -0.000026   0.000162   0.000000
    10  H   -0.003266   0.000001  -0.000026   0.444115   0.001377   0.000000
    11  C   -0.001794   0.005503   0.000162   0.001377   6.396000   0.362825
    12  H    0.000109   0.000001   0.000000   0.000000   0.362825   0.454305
    13  H   -0.000511  -0.000001   0.000000   0.000001   0.393968  -0.021706
    14  H   -0.000512  -0.000001   0.000000   0.000001   0.393958  -0.021722
    15  N   -0.004472   0.005533  -0.001400  -0.001147   0.089111  -0.042567
    16  H    0.000035   0.001621  -0.000001   0.000000  -0.031274  -0.003857
    17  O   -0.000485  -0.000506  -0.001974  -0.003571   0.003198   0.000000
    18  H    0.000000   0.000000   0.000050   0.001328   0.000044   0.000000
              13         14         15         16         17         18
     1  C   -0.016991  -0.017204   0.617656  -0.042987   0.088927  -0.049861
     2  C   -0.000788  -0.000605  -0.487886  -0.112511  -0.018062   0.028247
     3  C    0.016947   0.017109  -1.012562   0.094630   0.134485  -0.045464
     4  C    0.000952   0.000942   0.233432   0.016824  -0.114009   0.110210
     5  C    0.000579   0.000591  -0.189246   0.000022   0.058745  -0.183160
     6  C    0.000511   0.000441  -0.017232  -0.000322  -0.403931   0.144620
     7  H   -0.000511  -0.000512  -0.004472   0.000035  -0.000485   0.000000
     8  H   -0.000001  -0.000001   0.005533   0.001621  -0.000506   0.000000
     9  H    0.000000   0.000000  -0.001400  -0.000001  -0.001974   0.000050
    10  H    0.000001   0.000001  -0.001147   0.000000  -0.003571   0.001328
    11  C    0.393968   0.393958   0.089111  -0.031274   0.003198   0.000044
    12  H   -0.021706  -0.021722  -0.042567  -0.003857   0.000000   0.000000
    13  H    0.496586  -0.044355  -0.076777   0.001533   0.000001   0.000000
    14  H   -0.044355   0.496624  -0.076847   0.001530   0.000001   0.000000
    15  N   -0.076777  -0.076847   7.799406   0.348253   0.003269  -0.000074
    16  H    0.001533   0.001530   0.348253   0.301136   0.000001   0.000000
    17  O    0.000001   0.000001   0.003269   0.000001   8.689601   0.185061
    18  H    0.000000   0.000000  -0.000074   0.000000   0.185061   0.373047
 Mulliken charges:
               1
     1  C    2.382004
     2  C   -0.384284
     3  C   -3.185489
     4  C    0.665962
     5  C   -0.960347
     6  C    0.117521
     7  H    0.233452
     8  H    0.231600
     9  H    0.255060
    10  H    0.235283
    11  C   -0.391432
    12  H    0.246457
    13  H    0.250049
    14  H    0.250047
    15  N   -0.186450
    16  H    0.425367
    17  O   -0.620750
    18  H    0.435951
 Sum of Mulliken charges =   0.00000
 Mulliken charges with hydrogens summed into heavy atoms:
               1
     1  C    2.615456
     2  C   -0.384284
     3  C   -2.953889
     4  C    0.921022
     5  C   -0.960347
     6  C    0.352804
    11  C    0.355122
    15  N    0.238917
    17  O   -0.184799
 Electronic spatial extent (au):  <R**2>=           1417.0726
 Charge=              0.0000 electrons
 Dipole moment (field-independent basis, Debye):
    X=              3.3048    Y=              1.2723    Z=              0.0000  Tot=              3.5412
 Quadrupole moment (field-independent basis, Debye-Ang):
   XX=            -50.1908   YY=            -45.5659   ZZ=            -61.1709
   XY=             -7.7806   XZ=              0.0012   YZ=             -0.0010
 Traceless Quadrupole moment (field-independent basis, Debye-Ang):
   XX=              2.1184   YY=              6.7433   ZZ=             -8.8617
   XY=             -7.7806   XZ=              0.0012   YZ=             -0.0010
 Octapole moment (field-independent basis, Debye-Ang**2):
  XXX=             45.4080  YYY=             -1.8186  ZZZ=             -0.0002  XYY=             -7.9532
  XXY=             20.7277  XXZ=             -0.0016  XZZ=             -0.5552  YZZ=              1.6247
  YYZ=             -0.0010  XYZ=             -0.0015
 Hexadecapole moment (field-independent basis, Debye-Ang**3):
 XXXX=          -1394.1663 YYYY=           -329.3789 ZZZZ=            -81.1952 XXXY=           -117.4004
 XXXZ=              0.0017 YYYX=            -32.7244 YYYZ=             -0.0024 ZZZX=              0.0031
 ZZZY=             -0.0008 XXYY=           -237.5994 XXZZ=           -275.2594 YYZZ=            -83.6839
 XXYZ=             -0.0072 YYXZ=              0.0029 ZZXY=             -0.7736
 N-N= 4.188289518236D+02 E-N=-1.766776601015D+03  KE= 3.961968054057D+02
 Unable to Open any file for archive entry.
 1|1|UNPC-SHENGHAN|FOpt|RB3LYP|3-21+G|C7H9N1O1|SHENGHAN|30-Jul-2023|0||
 # opt b3lyp/3-21+g scrf=(solvent=toluene) geom=connectivity||Title Car
 d Required||0,1|C,-2.1323584963,2.2768959541,-0.790109087|C,-0.8226593
 195,2.289000433,-0.2694217203|C,-0.4583779122,3.3649805575,0.575916471
 1|C,-1.3615146381,4.377447503,0.8835825242|C,-2.6558593603,4.347267405
 2,0.3572196763|C,-3.0376740294,3.2997129939,-0.4765164337|H,-2.4537288
 849,1.4726483787,-1.4411739294|H,0.5446218557,3.4008117526,0.992079623
 3|H,-1.0735124916,5.1973320367,1.5319062445|H,-4.0416981239,3.26650551
 96,-0.8912128576|C,-0.2063019758,0.1427046306,-1.4299051844|H,0.685105
 0062,-0.487505061,-1.4918882789|H,-1.0325191997,-0.4613335871,-1.02660
 07929|H,-0.4759360809,0.4656229987,-2.4463656051|N,0.0955407936,1.2863
 307227,-0.5647823598|H,1.0213699664,1.3513181233,-0.1601628719|O,-3.52
 35771204,5.4134789859,0.7138923798|H,-4.4151707089,5.3061026426,0.2947
 88372||Version=EM64W-G16RevC.01|State=1-A|HF=-399.9819102|RMSD=4.650e-
 009|RMSF=9.002e-006|Dipole=0.3144512,-1.1894576,-0.6537388|Quadrupole=
 7.7731473,-3.3050332,-4.4681141,-2.896282,3.7294317,1.0112103|PG=C01 [
 X(C7H9N1O1)]||@
 The archive entry for this job was punched.


 CONFIDENCE IS WHAT YOU FEEL BEFORE YOU FULLY
 COMPREHEND THE SITUATION.
 Job cpu time:       0 days  1 hours 12 minutes  2.0 seconds.
 Elapsed time:       0 days  1 hours 11 minutes 51.7 seconds.
 File lengths (MBytes):  RWF=     90 Int=      0 D2E=      0 Chk=      5 Scr=      1
 Normal termination of Gaussian 16 at Sun Jul 30 18:17:00 2023.
