 Entering Link 1 = C:\G16W\l1.exe PID=     31748.
  
 Copyright (c) 1988-2019, Gaussian, Inc.  All Rights Reserved.
  
 This is part of the Gaussian(R) 16 program.  It is based on
 the Gaussian(R) 09 system (copyright 2009, Gaussian, Inc.),
 the Gaussian(R) 03 system (copyright 2003, Gaussian, Inc.),
 the Gaussian(R) 98 system (copyright 1998, Gaussian, Inc.),
 the Gaussian(R) 94 system (copyright 1995, Gaussian, Inc.),
 the Gaussian 92(TM) system (copyright 1992, Gaussian, Inc.),
 the Gaussian 90(TM) system (copyright 1990, Gaussian, Inc.),
 the Gaussian 88(TM) system (copyright 1988, Gaussian, Inc.),
 the Gaussian 86(TM) system (copyright 1986, Carnegie Mellon
 University), and the Gaussian 82(TM) system (copyright 1983,
 Carnegie Mellon University). Gaussian is a federally registered
 trademark of Gaussian, Inc.
  
 This software contains proprietary and confidential information,
 including trade secrets, belonging to Gaussian, Inc.
  
 This software is provided under written license and may be
 used, copied, transmitted, or stored only in accord with that
 written license.
  
 The following legend is applicable only to US Government
 contracts under FAR:
  
                    RESTRICTED RIGHTS LEGEND
  
 Use, reproduction and disclosure by the US Government is
 subject to restrictions as set forth in subparagraphs (a)
 and (c) of the Commercial Computer Software - Restricted
 Rights clause in FAR 52.227-19.
  
 Gaussian, Inc.
 340 Quinnipiac St., Bldg. 40, Wallingford CT 06492
  
  
 ---------------------------------------------------------------
 Warning -- This program may not be used in any manner that
 competes with the business of Gaussian, Inc. or will provide
 assistance to any competitor of Gaussian, Inc.  The licensee
 of this program is prohibited from giving any competitor of
 Gaussian, Inc. access to this program.  By using this program,
 the user acknowledges that Gaussian, Inc. is engaged in the
 business of creating and licensing software in the field of
 computational chemistry and represents and warrants to the
 licensee that it is not a competitor of Gaussian, Inc. and that
 it will not use this program in any manner prohibited above.
 ---------------------------------------------------------------
  

 Cite this work as:
 Gaussian 16, Revision C.01,
 M. J. Frisch, G. W. Trucks, H. B. Schlegel, G. E. Scuseria, 
 M. A. Robb, J. R. Cheeseman, G. Scalmani, V. Barone, 
 G. A. Petersson, H. Nakatsuji, X. Li, M. Caricato, A. V. Marenich, 
 J. Bloino, B. G. Janesko, R. Gomperts, B. Mennucci, H. P. Hratchian, 
 J. V. Ortiz, A. F. Izmaylov, J. L. Sonnenberg, D. Williams-Young, 
 F. Ding, F. Lipparini, F. Egidi, J. Goings, B. Peng, A. Petrone, 
 T. Henderson, D. Ranasinghe, V. G. Zakrzewski, J. Gao, N. Rega, 
 G. Zheng, W. Liang, M. Hada, M. Ehara, K. Toyota, R. Fukuda, 
 J. Hasegawa, M. Ishida, T. Nakajima, Y. Honda, O. Kitao, H. Nakai, 
 T. Vreven, K. Throssell, J. A. Montgomery, Jr., J. E. Peralta, 
 F. Ogliaro, M. J. Bearpark, J. J. Heyd, E. N. Brothers, K. N. Kudin, 
 V. N. Staroverov, T. A. Keith, R. Kobayashi, J. Normand, 
 K. Raghavachari, A. P. Rendell, J. C. Burant, S. S. Iyengar, 
 J. Tomasi, M. Cossi, J. M. Millam, M. Klene, C. Adamo, R. Cammi, 
 J. W. Ochterski, R. L. Martin, K. Morokuma, O. Farkas, 
 J. B. Foresman, and D. J. Fox, Gaussian, Inc., Wallingford CT, 2019.
 
 ******************************************
 Gaussian 16:  EM64W-G16RevC.01 30-May-2019
                30-Jul-2023 
 ******************************************
 %chk=D:\Wu Group Data\Gaussian\Benzene amine.chk
 ----------------------------
 # hf/3-21g geom=connectivity
 ----------------------------
 1/38=1,57=2,172=1/1;
 2/12=2,17=6,18=5,40=1/2;
 3/5=5,11=9,25=1,30=1/1,2,3;
 4//1;
 5/5=2,38=5/2;
 6/7=2,8=2,9=2,10=2,28=1/1;
 99/5=1,9=1/99;
 -------------------
 Title Card Required
 -------------------
 Symbolic Z-matrix:
 Charge =  0 Multiplicity = 1
 C                    -2.53393   1.93975  -0.37091 
 C                    -1.16164   1.96495  -0.08787 
 C                    -0.54442   3.16756   0.28186 
 C                    -1.29948   4.34496   0.36854 
 C                    -2.67177   4.31976   0.0855 
 C                    -3.28899   3.11715  -0.28423 
 H                    -3.00519   1.02153  -0.6532 
 H                     0.50335   3.1868    0.49797 
 H                    -0.82822   5.26318   0.65083 
 H                    -4.33676   3.09791  -0.50034 
 C                     0.16418   0.58931  -1.54121 
 H                     0.74069  -0.30967  -1.6074 
 H                    -0.64589   0.5457   -2.23892 
 H                     0.78627   1.42955  -1.76902 
 N                    -0.36961   0.72991  -0.17879 
 H                     0.38746   0.77066   0.47327 
 O                    -3.44225   5.52119   0.17394 
 H                    -3.79805   5.60912   1.06123 
 
                          Input orientation:                          
 ---------------------------------------------------------------------
 Center     Atomic      Atomic             Coordinates (Angstroms)
 Number     Number       Type             X           Y           Z
 ---------------------------------------------------------------------
      1          6           0       -2.533926    1.939747   -0.370909
      2          6           0       -1.161639    1.964949   -0.087866
      3          6           0       -0.544418    3.167557    0.281859
      4          6           0       -1.299484    4.344962    0.368540
      5          6           0       -2.671772    4.319760    0.085496
      6          6           0       -3.288993    3.117152   -0.284228
      7          1           0       -3.005188    1.021530   -0.653202
      8          1           0        0.503355    3.186799    0.497967
      9          1           0       -0.828222    5.263179    0.650832
     10          1           0       -4.336765    3.097910   -0.500338
     11          6           0        0.164178    0.589309   -1.541215
     12          1           0        0.740688   -0.309666   -1.607398
     13          1           0       -0.645886    0.545703   -2.238921
     14          1           0        0.786273    1.429548   -1.769022
     15          7           0       -0.369611    0.729909   -0.178790
     16          1           0        0.387459    0.770662    0.473272
     17          8           0       -3.442247    5.521194    0.173943
     18          1           0       -3.798054    5.609116    1.061227
 ---------------------------------------------------------------------
                    Distance matrix (angstroms):
                    1          2          3          4          5
     1  C    0.000000
     2  C    1.401400   0.000000
     3  C    2.427296   1.401400   0.000000
     4  C    2.802800   2.427296   1.401400   0.000000
     5  C    2.427296   2.802800   2.427296   1.401400   0.000000
     6  C    1.401400   2.427296   2.802800   2.427296   1.401400
     7  H    1.070000   2.146700   3.396345   3.872800   3.396345
     8  H    3.396345   2.146700   1.070000   2.146700   3.396345
     9  H    3.872800   3.396345   2.146700   1.070000   2.146700
    10  H    2.146700   3.396345   3.872800   3.396345   2.146700
    11  C    3.236212   2.400500   3.236212   4.460314   4.960349
    12  H    4.160753   3.331921   4.160753   5.452723   5.995194
    13  H    2.999587   2.628174   3.638508   4.654075   4.873462
    14  H    3.638508   2.628174   2.999587   4.173630   4.873462
    15  N    2.486942   1.470000   2.486942   3.772644   4.272800
    16  H    3.257897   2.034920   2.578785   3.953778   4.701633
    17  O    3.734792   4.232800   3.734792   2.452106   1.430000
    18  H    4.136822   4.642310   4.141832   2.884571   1.970533
                    6          7          8          9         10
     6  C    0.000000
     7  H    2.146700   0.000000
     8  H    3.872800   4.280590   0.000000
     9  H    3.396345   4.942800   2.471400   0.000000
    10  H    1.070000   2.471400   4.942800   4.280590   0.000000
    11  C    4.460314   3.319678   3.319677   5.256899   5.256899
    12  H    5.452723   4.088296   4.088295   6.214313   6.214313
    13  H    4.173630   2.882225   3.973248   5.535206   4.812382
    14  H    4.654075   3.973249   2.882224   4.812381   5.535206
    15  N    3.772644   2.693767   2.693766   4.631321   4.631321
    16  H    4.426750   3.583564   2.419041   4.657479   5.355585
    17  O    2.452106   4.595886   4.595886   2.669667   2.669667
    18  H    2.877372   4.961234   4.968601   3.017945   3.005802
                   11         12         13         14         15
    11  C    0.000000
    12  H    1.070000   0.000000
    13  H    1.070000   1.747303   0.000000
    14  H    1.070000   1.747303   1.747303   0.000000
    15  N    1.470000   2.086720   2.086720   2.086720   0.000000
    16  H    2.034920   2.370879   2.911082   2.370879   1.000000
    17  O    6.345988   7.393852   6.196536   6.196536   5.702800
    18  H    6.904379   7.921724   6.816545   6.818735   6.090856
                   16         17         18
    16  H    0.000000
    17  O    6.109321   0.000000
    18  H    6.424550   0.960000   0.000000
 Stoichiometry    C7H9NO
 Framework group  C1[X(C7H9NO)]
 Deg. of freedom    48
 Full point group                 C1      NOp   1
 Largest Abelian subgroup         C1      NOp   1
 Largest concise Abelian subgroup C1      NOp   1
                         Standard orientation:                         
 ---------------------------------------------------------------------
 Center     Atomic      Atomic             Coordinates (Angstroms)
 Number     Number       Type             X           Y           Z
 ---------------------------------------------------------------------
      1          6           0        0.231081    1.223347   -0.248953
      2          6           0        0.934876    0.014436   -0.333397
      3          6           0        0.254417   -1.203333   -0.199468
      4          6           0       -1.129837   -1.212191    0.018904
      5          6           0       -1.833631   -0.003280    0.103348
      6          6           0       -1.153172    1.214489   -0.030581
      7          1           0        0.750627    2.153140   -0.351210
      8          1           0        0.791779   -2.126363   -0.263941
      9          1           0       -1.649382   -2.141984    0.121162
     10          1           0       -1.690534    2.137519    0.033895
     11          6           0        3.086622    0.056810    0.729895
     12          1           0        4.143530    0.063573    0.563163
     13          1           0        2.804434    0.938898    1.265797
     14          1           0        2.821232   -0.807961    1.301419
     15          7           0        2.386890    0.023728   -0.562459
     16          1           0        2.650617   -0.800653   -1.063302
     17          8           0       -3.246134   -0.012319    0.326180
     18          1           0       -3.703604   -0.025381   -0.517710
 ---------------------------------------------------------------------
 Rotational constants (GHZ):           4.5239628           0.9585158           0.8447180
 Standard basis: 3-21G (6D, 7F)
 There are    99 symmetry adapted cartesian basis functions of A   symmetry.
 There are    99 symmetry adapted basis functions of A   symmetry.
    99 basis functions,   162 primitive gaussians,    99 cartesian basis functions
    33 alpha electrons       33 beta electrons
       nuclear repulsion energy       420.0442302931 Hartrees.
 NAtoms=   18 NActive=   18 NUniq=   18 SFac= 1.00D+00 NAtFMM=   60 NAOKFM=F Big=F
 Integral buffers will be    131072 words long.
 Raffenetti 1 integral format.
 Two-electron integral symmetry is turned on.
 One-electron integrals computed using PRISM.
 NBasis=    99 RedAO= T EigKep=  1.57D-03  NBF=    99
 NBsUse=    99 1.00D-06 EigRej= -1.00D+00 NBFU=    99
 ExpMin= 1.83D-01 ExpMax= 3.22D+02 ExpMxC= 3.22D+02 IAcc=3 IRadAn=         5 AccDes= 0.00D+00
 Harris functional with IExCor=  205 and IRadAn=       5 diagonalized for initial guess.
 HarFok:  IExCor=  205 AccDes= 0.00D+00 IRadAn=         5 IDoV= 1 UseB2=F ITyADJ=14
 ICtDFT=  3500011 ScaDFX=  1.000000  1.000000  1.000000  1.000000
 FoFCou: FMM=F IPFlag=           0 FMFlag=      100000 FMFlg1=           0
         NFxFlg=           0 DoJE=T BraDBF=F KetDBF=T FulRan=T
         wScrn=  0.000000 ICntrl=       500 IOpCl=  0 I1Cent=   200000004 NGrid=           0
         NMat0=    1 NMatS0=      1 NMatT0=    0 NMatD0=    1 NMtDS0=    0 NMtDT0=    0
 Petite list used in FoFCou.
 Keep R1 ints in memory in canonical form, NReq=13103648.
 Requested convergence on RMS density matrix=1.00D-08 within 128 cycles.
 Requested convergence on MAX density matrix=1.00D-06.
 Requested convergence on             energy=1.00D-06.
 No special actions if energy rises.
 SCF Done:  E(RHF) =  -397.376819234     A.U. after   14 cycles
            NFock= 14  Conv=0.42D-08     -V/T= 2.0028

 **********************************************************************

            Population analysis using the SCF Density.

 **********************************************************************

 Orbital symmetries:
       Occupied  (A) (A) (A) (A) (A) (A) (A) (A) (A) (A) (A) (A)
                 (A) (A) (A) (A) (A) (A) (A) (A) (A) (A) (A) (A)
                 (A) (A) (A) (A) (A) (A) (A) (A) (A)
       Virtual   (A) (A) (A) (A) (A) (A) (A) (A) (A) (A) (A) (A)
                 (A) (A) (A) (A) (A) (A) (A) (A) (A) (A) (A) (A)
                 (A) (A) (A) (A) (A) (A) (A) (A) (A) (A) (A) (A)
                 (A) (A) (A) (A) (A) (A) (A) (A) (A) (A) (A) (A)
                 (A) (A) (A) (A) (A) (A) (A) (A) (A) (A) (A) (A)
                 (A) (A) (A) (A) (A) (A)
 The electronic state is 1-A.
 Alpha  occ. eigenvalues --  -20.46236 -15.47494 -11.24447 -11.21905 -11.18670
 Alpha  occ. eigenvalues --  -11.18602 -11.18488 -11.18356 -11.18339  -1.36419
 Alpha  occ. eigenvalues --   -1.22304  -1.13565  -1.02240  -0.99470  -0.90750
 Alpha  occ. eigenvalues --   -0.84541  -0.80687  -0.72019  -0.68618  -0.65859
 Alpha  occ. eigenvalues --   -0.62870  -0.61746  -0.60141  -0.59382  -0.57079
 Alpha  occ. eigenvalues --   -0.54776  -0.52681  -0.51100  -0.48442  -0.46308
 Alpha  occ. eigenvalues --   -0.38853  -0.34579  -0.31723
 Alpha virt. eigenvalues --    0.13610   0.14971   0.25578   0.27884   0.28238
 Alpha virt. eigenvalues --    0.31267   0.33400   0.34452   0.35006   0.35429
 Alpha virt. eigenvalues --    0.37436   0.39110   0.42545   0.44816   0.45986
 Alpha virt. eigenvalues --    0.54650   0.55318   0.56217   0.58181   0.81300
 Alpha virt. eigenvalues --    0.84441   0.90823   0.92212   0.92718   0.96241
 Alpha virt. eigenvalues --    0.97144   0.98676   1.02618   1.04629   1.05208
 Alpha virt. eigenvalues --    1.07395   1.07948   1.11095   1.11961   1.13538
 Alpha virt. eigenvalues --    1.18644   1.23095   1.24916   1.28318   1.31229
 Alpha virt. eigenvalues --    1.31701   1.36316   1.37178   1.39759   1.42652
 Alpha virt. eigenvalues --    1.46594   1.48518   1.54631   1.59188   1.63957
 Alpha virt. eigenvalues --    1.65434   1.73930   1.74816   1.76471   1.79641
 Alpha virt. eigenvalues --    1.80629   1.85619   1.96981   1.98484   2.09851
 Alpha virt. eigenvalues --    2.14972   2.22799   2.25925   2.69813   3.12758
 Alpha virt. eigenvalues --    3.64445
          Condensed to atoms (all electrons):
               1          2          3          4          5          6
     1  C    5.238079   0.463159  -0.106615   0.008781  -0.080028   0.382955
     2  C    0.463159   5.068041   0.409068  -0.089596  -0.006020  -0.101361
     3  C   -0.106615   0.409068   5.343912   0.360891  -0.081423   0.009146
     4  C    0.008781  -0.089596   0.360891   5.372896   0.404254  -0.134190
     5  C   -0.080028  -0.006020  -0.081423   0.404254   4.913926   0.396395
     6  C    0.382955  -0.101361   0.009146  -0.134190   0.396395   5.376151
     7  H    0.394079  -0.032580   0.002700  -0.000198   0.001834  -0.028506
     8  H    0.002076  -0.039008   0.402193  -0.027577   0.001846  -0.000072
     9  H   -0.000255   0.002015  -0.029980   0.394380  -0.036701   0.002883
    10  H   -0.030167   0.002393  -0.000230   0.002838  -0.037598   0.395012
    11  C   -0.002619  -0.117887   0.002126  -0.000049   0.000019  -0.000035
    12  H    0.000008   0.005098  -0.000129   0.000002   0.000000   0.000000
    13  H    0.002404  -0.003799  -0.000220   0.000018  -0.000002  -0.000086
    14  H   -0.000066  -0.001096   0.004424  -0.000253  -0.000008   0.000024
    15  N   -0.050853   0.297589  -0.067441   0.003148  -0.000089   0.002040
    16  H    0.002950  -0.056686   0.001575   0.000275   0.000003  -0.000111
    17  O    0.002475  -0.000195   0.002498  -0.055626   0.285353  -0.055957
    18  H   -0.000119   0.000033  -0.000141   0.000001  -0.050228   0.000072
               7          8          9         10         11         12
     1  C    0.394079   0.002076  -0.000255  -0.030167  -0.002619   0.000008
     2  C   -0.032580  -0.039008   0.002015   0.002393  -0.117887   0.005098
     3  C    0.002700   0.402193  -0.029980  -0.000230   0.002126  -0.000129
     4  C   -0.000198  -0.027577   0.394380   0.002838  -0.000049   0.000002
     5  C    0.001834   0.001846  -0.036701  -0.037598   0.000019   0.000000
     6  C   -0.028506  -0.000072   0.002883   0.395012  -0.000035   0.000000
     7  H    0.403815  -0.000031   0.000001  -0.001431   0.000164  -0.000017
     8  H   -0.000031   0.423687  -0.001361   0.000001   0.000267  -0.000007
     9  H    0.000001  -0.001361   0.412470  -0.000020   0.000001   0.000000
    10  H   -0.001431   0.000001  -0.000020   0.411456   0.000001   0.000000
    11  C    0.000164   0.000267   0.000001   0.000001   5.198406   0.377361
    12  H   -0.000017  -0.000007   0.000000   0.000000   0.377361   0.495255
    13  H   -0.000024  -0.000008   0.000000   0.000000   0.376951  -0.021891
    14  H    0.000054   0.000402   0.000001   0.000000   0.362435  -0.033891
    15  N    0.000158  -0.003377  -0.000012  -0.000011   0.247984  -0.029503
    16  H   -0.000018   0.001484   0.000000   0.000001  -0.046609  -0.002405
    17  O   -0.000002  -0.000003  -0.001709  -0.001721   0.000000   0.000000
    18  H    0.000001   0.000001   0.000098   0.000117   0.000000   0.000000
              13         14         15         16         17         18
     1  C    0.002404  -0.000066  -0.050853   0.002950   0.002475  -0.000119
     2  C   -0.003799  -0.001096   0.297589  -0.056686  -0.000195   0.000033
     3  C   -0.000220   0.004424  -0.067441   0.001575   0.002498  -0.000141
     4  C    0.000018  -0.000253   0.003148   0.000275  -0.055626   0.000001
     5  C   -0.000002  -0.000008  -0.000089   0.000003   0.285353  -0.050228
     6  C   -0.000086   0.000024   0.002040  -0.000111  -0.055957   0.000072
     7  H   -0.000024   0.000054   0.000158  -0.000018  -0.000002   0.000001
     8  H   -0.000008   0.000402  -0.003377   0.001484  -0.000003   0.000001
     9  H    0.000000   0.000001  -0.000012   0.000000  -0.001709   0.000098
    10  H    0.000000   0.000000  -0.000011   0.000001  -0.001721   0.000117
    11  C    0.376951   0.362435   0.247984  -0.046609   0.000000   0.000000
    12  H   -0.021891  -0.033891  -0.029503  -0.002405   0.000000   0.000000
    13  H    0.487590  -0.035443  -0.034196   0.003882   0.000000   0.000000
    14  H   -0.035443   0.571380  -0.054679  -0.001356   0.000000   0.000000
    15  N   -0.034196  -0.054679   7.090886   0.346181   0.000000   0.000000
    16  H    0.003882  -0.001356   0.346181   0.443485   0.000000   0.000000
    17  O    0.000000   0.000000   0.000000   0.000000   8.264698   0.274576
    18  H    0.000000   0.000000   0.000000   0.000000   0.274576   0.388610
 Mulliken charges:
               1
     1  C   -0.226243
     2  C    0.200832
     3  C   -0.252354
     4  C   -0.239996
     5  C    0.288467
     6  C   -0.244359
     7  H    0.260002
     8  H    0.239488
     9  H    0.258190
    10  H    0.259359
    11  C   -0.398515
    12  H    0.210119
    13  H    0.224825
    14  H    0.188071
    15  N   -0.747825
    16  H    0.307348
    17  O   -0.714389
    18  H    0.386978
 Sum of Mulliken charges =   0.00000
 Mulliken charges with hydrogens summed into heavy atoms:
               1
     1  C    0.033760
     2  C    0.200832
     3  C   -0.012866
     4  C    0.018194
     5  C    0.288467
     6  C    0.015000
    11  C    0.224500
    15  N   -0.440477
    17  O   -0.327410
 Electronic spatial extent (au):  <R**2>=           1374.9494
 Charge=              0.0000 electrons
 Dipole moment (field-independent basis, Debye):
    X=              0.7646    Y=             -1.1054    Z=             -1.0398  Tot=              1.6993
 Quadrupole moment (field-independent basis, Debye-Ang):
   XX=            -51.0954   YY=            -48.0303   ZZ=            -58.0706
   XY=             -3.4269   XZ=              8.9941   YZ=              1.8299
 Traceless Quadrupole moment (field-independent basis, Debye-Ang):
   XX=              1.3034   YY=              4.3684   ZZ=             -5.6718
   XY=             -3.4269   XZ=              8.9941   YZ=              1.8299
 Octapole moment (field-independent basis, Debye-Ang**2):
  XXX=             -3.1792  YYY=             -0.2416  ZZZ=              1.5169  XYY=             -4.2933
  XXY=             -9.8311  XXZ=            -19.5925  XZZ=             -1.8345  YZZ=             -1.6273
  YYZ=             -0.5901  XYZ=              5.3958
 Hexadecapole moment (field-independent basis, Debye-Ang**3):
 XXXX=          -1234.7336 YYYY=           -277.7828 ZZZZ=           -117.3372 XXXY=            -25.6385
 XXXZ=            109.3600 YYYX=             -2.9447 YYYZ=              0.7365 ZZZX=             -1.0341
 ZZZY=              3.6847 XXYY=           -260.7089 XXZZ=           -242.8070 YYZZ=            -76.7798
 XXYZ=             15.0728 YYXZ=             -4.3086 ZZXY=             -4.2923
 N-N= 4.200442302931D+02 E-N=-1.768552577444D+03  KE= 3.962842492023D+02
 Unable to Open any file for archive entry.
 1|1|UNPC-SHENGHAN|SP|RHF|3-21G|C7H9N1O1|SHENGHAN|30-Jul-2023|0||# hf/3
 -21g geom=connectivity||Title Card Required||0,1|C,0,-2.53392614,1.939
 74739,-0.37090934|C,0,-1.16163856,1.96494946,-0.08786583|C,0,-0.544417
 61,3.1675566,0.28185882|C,0,-1.29948426,4.34496167,0.36854004|C,0,-2.6
 7177175,4.31975968,0.08549614|C,0,-3.28899282,3.11715242,-0.28422791|H
 ,0,-3.00518807,1.02153011,-0.65320211|H,0,0.50335478,3.18679932,0.4979
 6694|H,0,-0.82822215,5.26317913,0.65083194|H,0,-4.33676477,3.09791015,
 -0.50033825|C,0,0.16417827,0.58930903,-1.54121478|H,0,0.74068839,-0.30
 966588,-1.60739774|H,0,-0.64588614,0.54570301,-2.23892114|H,0,0.786272
 77,1.42954838,-1.76902232|N,0,-0.36961063,0.72990916,-0.17879009|H,0,0
 .3874589,0.77066245,0.47327193|O,0,-3.4422473,5.52119404,0.1739433|H,0
 ,-3.79805363,5.60911587,1.06122657||Version=EM64W-G16RevC.01|State=1-A
 |HF=-397.3768192|RMSD=4.152e-009|Dipole=0.4735163,-0.1554039,0.4456623
 |Quadrupole=5.4266677,-5.0920568,-0.3346108,-0.0304086,-1.6212511,6.10
 87865|PG=C01 [X(C7H9N1O1)]||@
 The archive entry for this job was punched.


 The number of Unix installations has grown to 10,
  with more expected.
                  -- The Unix Programmer's Manual,
                     2nd Edition, June, 1972.
 Job cpu time:       0 days  0 hours  0 minutes  4.0 seconds.
 Elapsed time:       0 days  0 hours  0 minutes  3.7 seconds.
 File lengths (MBytes):  RWF=     10 Int=      0 D2E=      0 Chk=      2 Scr=      1
 Normal termination of Gaussian 16 at Sun Jul 30 16:40:37 2023.
